/*--------------------------------*- C++ -*----------------------------------*\
| =========                 |                                                 |
| \\      /  F ield         | OpenFOAM: The Open Source CFD Toolbox           |
|  \\    /   O peration     | Version:  5.x                                   |
|   \\  /    A nd           | Web:      www.OpenFOAM.org                      |
|    \\/     M anipulation  |                                                 |
\*---------------------------------------------------------------------------*/
FoamFile
{
    version     2.0;
    format      ascii;
    class       volScalarField;
    location    "3.5";
    object       aC3H5;
}
// * * * * * * * * * * * * * * * * * * * * * * * * * * * * * * * * * * * * * //

dimensions      [0 0 0 0 0 0 0];

internalField   nonuniform List<scalar>
51080
(
0.000000000e+00
0.000000000e+00
0.000000000e+00
0.000000000e+00
0.000000000e+00
0.000000000e+00
0.000000000e+00
0.000000000e+00
0.000000000e+00
0.000000000e+00
2.954051200e-05
3.089927816e-05
3.241116831e-05
3.438266818e-05
3.703901082e-05
4.040337964e-05
4.433301585e-05
4.809898944e-05
4.894161303e-05
3.829061433e-05
0.000000000e+00
0.000000000e+00
0.000000000e+00
0.000000000e+00
0.000000000e+00
0.000000000e+00
0.000000000e+00
0.000000000e+00
2.866794538e-05
2.973694065e-05
3.112168764e-05
3.266739180e-05
3.470601301e-05
3.748170262e-05
4.090936178e-05
4.477996641e-05
4.818862757e-05
4.832825147e-05
3.934391402e-05
2.145382004e-05
0.000000000e+00
0.000000000e+00
0.000000000e+00
0.000000000e+00
0.000000000e+00
0.000000000e+00
0.000000000e+00
2.886508364e-05
2.993385634e-05
3.133755629e-05
3.290157062e-05
3.494514248e-05
3.770862446e-05
4.105532007e-05
4.475214766e-05
4.795404765e-05
4.824653791e-05
4.112951860e-05
2.588819691e-05
1.218563044e-05
0.000000000e+00
0.000000000e+00
0.000000000e+00
0.000000000e+00
0.000000000e+00
2.828920259e-05
2.908052459e-05
3.010845837e-05
3.142602765e-05
3.307875457e-05
3.508122620e-05
3.779179870e-05
4.102464336e-05
4.453556348e-05
4.763639648e-05
4.829754489e-05
4.286638550e-05
2.973354980e-05
1.600167229e-05
6.937512835e-06
0.000000000e+00
0.000000000e+00
0.000000000e+00
0.000000000e+00
2.859297204e-05
2.935457516e-05
3.035804033e-05
3.166185116e-05
3.333700444e-05
3.518086898e-05
3.779003039e-05
4.087739511e-05
4.421530456e-05
4.726080244e-05
4.833271043e-05
4.442642412e-05
3.333533648e-05
1.978577848e-05
9.814882417e-06
3.843812931e-06
0.000000000e+00
2.813521347e-05
2.846626425e-05
2.897267917e-05
2.968323793e-05
3.063940308e-05
3.189534457e-05
3.351629852e-05
3.529148512e-05
3.773742477e-05
4.065532631e-05
4.382505653e-05
4.682960774e-05
4.828853652e-05
4.573501725e-05
3.669414860e-05
2.370050449e-05
1.292025823e-05
5.952723896e-06
2.000002167e-06
2.883736429e-05
2.904837383e-05
2.945969523e-05
3.008833013e-05
3.096843645e-05
3.214742941e-05
3.368325245e-05
3.536171158e-05
3.764607538e-05
4.038080106e-05
4.338311451e-05
4.634087398e-05
4.813423631e-05
4.675818775e-05
3.973682870e-05
2.776802643e-05
1.635312280e-05
8.395106826e-06
3.516416324e-06
9.228490549e-07
2.984740033e-05
3.010580644e-05
3.060882497e-05
3.137547154e-05
3.244346796e-05
3.386216408e-05
3.541680470e-05
3.751919256e-05
4.007005776e-05
4.290341139e-05
4.579635583e-05
4.785592980e-05
4.747707647e-05
4.237100058e-05
3.189694780e-05
2.017885603e-05
1.123398545e-05
5.404211511e-06
1.979962758e-06
3.318634711e-07
3.099405815e-05
3.130449299e-05
3.190726568e-05
3.282155852e-05
3.408491397e-05
3.547888258e-05
3.736057103e-05
3.970405747e-05
4.243039355e-05
4.521178044e-05
4.745444472e-05
4.788731774e-05
4.451494651e-05
3.589934806e-05
2.440253090e-05
1.454044940e-05
7.708944059e-06
3.415493005e-06
1.026134612e-06
5.797023385e-08
3.226667088e-05
3.263083345e-05
3.333595170e-05
3.439879863e-05
3.559674109e-05
3.723946944e-05
3.937778378e-05
4.190825694e-05
4.458708965e-05
4.694027762e-05
4.800261167e-05
4.612161016e-05
3.953797777e-05
2.892463978e-05
1.837399450e-05
1.049557277e-05
5.267586164e-06
2.092879863e-06
4.570755676e-07
6.736190295e-18
3.364777775e-05
3.405772810e-05
3.485647643e-05
3.580965267e-05
3.719747219e-05
3.910726982e-05
4.141472315e-05
4.394084619e-05
4.633199724e-05
4.785288272e-05
4.718878868e-05
4.259880989e-05
3.350701857e-05
2.274511060e-05
1.383728198e-05
7.595378763e-06
3.566101256e-06
1.220477208e-06
1.466198973e-07
1.730022255e-21
3.517726120e-05
3.553948231e-05
3.616619880e-05
3.728284170e-05
3.895479015e-05
4.099590621e-05
4.332042065e-05
4.566576300e-05
4.748287626e-05
4.775487648e-05
4.494715922e-05
3.780351364e-05
2.755118893e-05
1.779555526e-05
1.047208001e-05
5.500843729e-06
2.376573708e-06
6.565944556e-07
1.428990034e-08
2.744867496e-23
3.626826200e-05
3.669422402e-05
3.758009177e-05
3.893973211e-05
4.069511981e-05
4.277328826e-05
4.499282490e-05
4.695390069e-05
4.789170356e-05
4.655005824e-05
4.147020742e-05
3.251268120e-05
2.237547154e-05
1.397491789e-05
7.967378417e-06
3.976869095e-06
1.545936982e-06
3.066720083e-07
4.912518760e-19
1.177080562e-24
3.758867194e-05
3.813201358e-05
3.914329651e-05
4.056590755e-05
4.235210628e-05
4.437211147e-05
4.634069357e-05
4.769722326e-05
4.746627486e-05
4.428385312e-05
3.719379763e-05
2.744484603e-05
1.816033577e-05
1.104536686e-05
6.088393489e-06
2.861566281e-06
9.697136338e-07
1.069251005e-07
1.941396037e-21
8.321693282e-26
3.909823675e-05
3.965368275e-05
4.068277576e-05
4.212086077e-05
4.386991612e-05
4.572590358e-05
4.728527081e-05
4.781908161e-05
4.619065853e-05
4.115651179e-05
3.265571153e-05
2.300583079e-05
1.481030630e-05
8.789045370e-06
4.667157767e-06
2.042283999e-06
5.755789938e-07
1.469820290e-08
6.795193217e-23
7.950526945e-27
4.056271818e-05
4.112315309e-05
4.215139852e-05
4.355886621e-05
4.519628158e-05
4.677539090e-05
4.776571287e-05
4.728411938e-05
4.413733680e-05
3.748778940e-05
2.831152442e-05
1.929777531e-05
1.215937564e-05
7.037678417e-06
3.584118856e-06
1.439589613e-06
3.128828046e-07
7.073931981e-18
5.131810118e-24
9.255237189e-28
4.195811963e-05
4.251132563e-05
4.351122383e-05
4.483789240e-05
4.628477496e-05
4.747230710e-05
4.774430822e-05
4.610563058e-05
4.146256648e-05
3.363095000e-05
2.442537197e-05
1.626081917e-05
1.005325307e-05
5.666874179e-06
2.753492814e-06
9.967751901e-07
1.458429899e-07
1.737084513e-20
5.958462007e-25
1.236332355e-28
4.325789529e-05
4.378877327e-05
4.472847296e-05
4.592085888e-05
4.709663973e-05
4.778227318e-05
4.721055004e-05
4.434754710e-05
3.838142345e-05
2.988441131e-05
2.108202568e-05
1.378502116e-05
8.368229437e-06
4.585310870e-06
2.113041512e-06
6.729086424e-07
4.913087837e-08
7.567934996e-22
9.182262258e-26
1.828237761e-29
4.443569038e-05
4.492754801e-05
4.577297265e-05
4.677621731e-05
4.760210932e-05
4.768691300e-05
4.618330832e-05
4.211864389e-05
3.512304991e-05
2.643931820e-05
1.825917617e-05
1.176157259e-05
7.009547487e-06
3.725589978e-06
1.617114799e-06
4.381610802e-07
5.454947652e-09
7.482567718e-23
1.734499650e-26
2.929866089e-30
4.546672474e-05
4.590212871e-05
4.661847400e-05
4.737852717e-05
4.778143734e-05
4.718525443e-05
4.471031469e-05
3.955842733e-05
3.188863427e-05
2.337979043e-05
1.589111343e-05
1.009851183e-05
5.905436509e-06
3.037527197e-06
1.231885341e-06
2.706098766e-07
1.184701721e-17
1.147653561e-23
3.827465734e-27
5.028798686e-31
4.632857844e-05
4.669004569e-05
4.724313659e-05
4.770907587e-05
4.762575790e-05
4.629421805e-05
4.286430940e-05
3.681644034e-05
2.882359329e-05
2.071525452e-05
1.390400473e-05
8.722385696e-06
5.001476950e-06
2.483402617e-06
9.320568559e-07
1.540350845e-07
7.389882353e-20
2.344849596e-24
9.564961450e-28
9.196178230e-32
4.700177489e-05
4.727238178e-05
4.762999051e-05
4.775643251e-05
4.713761361e-05
4.504791004e-05
4.073573933e-05
3.403021523e-05
2.601121370e-05
1.841575062e-05
1.223043579e-05
7.575646284e-06
4.256140532e-06
2.034598215e-06
6.985495621e-07
7.639127142e-08
5.131595874e-21
5.892144355e-25
2.651246346e-28
1.791471305e-32
4.747021044e-05
4.763422775e-05
4.776744891e-05
4.751694259e-05
4.633109547e-05
4.349544309e-05
3.842353760e-05
3.131080097e-05
2.348358279e-05
1.643645167e-05
1.081352882e-05
6.613419920e-06
3.637498531e-06
1.669216929e-06
5.168647145e-07
2.879526179e-08
7.321081092e-22
1.735164707e-25
8.034675075e-29
3.734032557e-33
4.772162252e-05
4.776514444e-05
4.764973359e-05
4.699506393e-05
4.523136662e-05
4.169727719e-05
3.602292995e-05
2.873527863e-05
2.123894125e-05
1.473077433e-05
9.606865569e-06
5.800610665e-06
3.120802576e-06
1.370362658e-06
3.759051581e-07
4.979786523e-09
1.534908618e-22
5.801038870e-26
2.635199356e-29
8.396538845e-34
4.774797368e-05
4.765955884e-05
4.727724951e-05
4.620343115e-05
4.387346027e-05
3.972047254e-05
3.361770348e-05
2.634785722e-05
1.925723421e-05
1.325614574e-05
8.573056905e-06
5.109643943e-06
2.686714646e-06
1.124905716e-06
2.671243806e-07
3.264006869e-15
4.135889906e-23
2.153346409e-26
9.284166863e-30
2.058355377e-34
4.754586191e-05
4.731713484e-05
4.665681794e-05
4.516255513e-05
4.230031463e-05
3.763299317e-05
3.127432855e-05
2.416649314e-05
1.751080887e-05
1.197579851e-05
7.682078690e-06
4.518708866e-06
2.320012913e-06
9.225691160e-07
1.839028012e-07
1.190613481e-18
1.335389096e-23
8.731941927e-27
3.493891047e-30
5.555487187e-35
4.711683515e-05
4.674302427e-05
4.580168175e-05
4.390006766e-05
4.056006705e-05
3.549786530e-05
2.903977479e-05
2.219113147e-05
1.597058102e-05
1.085884385e-05
6.909790934e-06
4.010432028e-06
2.008628691e-06
7.552558160e-07
1.210901509e-07
8.360632009e-20
4.951929030e-24
3.820771029e-27
1.398201770e-30
1.661417911e-35
4.646759280e-05
4.594794992e-05
4.473121624e-05
4.244947229e-05
3.870329200e-05
3.336986695e-05
2.694272684e-05
2.041104132e-05
1.460913280e-05
9.879649165e-06
6.236716905e-06
3.570891969e-06
1.742932562e-06
6.165486901e-07
7.467054622e-08
1.385923811e-20
2.050378197e-24
1.786730202e-27
5.928184029e-31
5.513443864e-36
4.561001792e-05
4.494806853e-05
4.347029465e-05
4.084836603e-05
3.677855757e-05
3.129281756e-05
2.499689258e-05
1.881017276e-05
1.340195515e-05
9.017056498e-06
5.647050745e-06
3.188854188e-06
1.515188510e-06
5.013309207e-07
4.151872703e-08
3.431340597e-21
9.292327570e-25
8.861190288e-28
2.654465059e-31
2.024221467e-36
4.456098162e-05
4.376451948e-05
4.204825735e-05
3.913684981e-05
3.483050718e-05
2.929873187e-05
2.320501443e-05
1.737063023e-05
1.232774752e-05
8.253594155e-06
5.127911245e-06
2.855196651e-06
1.319144687e-06
4.055007323e-07
1.923067291e-08
1.084129290e-21
4.541800181e-25
4.631309932e-28
1.251659558e-31
8.173181134e-37
4.334184204e-05
4.242267379e-05
4.049754794e-05
3.735410349e-05
3.289756588e-05
2.740852231e-05
2.156263013e-05
1.607466344e-05
1.136828304e-05
7.574808987e-06
4.668732198e-06
2.562469988e-06
1.149721457e-06
3.257529771e-07
6.011755668e-09
4.053131152e-22
2.367132901e-25
2.537435177e-28
6.198775371e-32
3.602743341e-37
4.197767368e-05
4.095099926e-05
3.885238572e-05
3.553715025e-05
3.101065658e-05
2.563368939e-05
2.006106265e-05
1.490569197e-05
1.050806585e-05
6.968711524e-06
4.260801625e-06
2.304554115e-06
1.002768625e-06
2.594123779e-07
4.960989586e-10
1.717235941e-22
1.303837451e-25
1.450789958e-28
3.216163702e-32
1.720396837e-37
4.049619666e-05
3.938024042e-05
3.714608357e-05
3.371906876e-05
2.919281175e-05
2.397843526e-05
1.868955295e-05
1.384873881e-05
9.733975968e-06
6.425304438e-06
3.896897960e-06
2.076394270e-06
8.748767724e-07
2.043023275e-07
2.466113293e-16
8.020630668e-23
7.535194826e-26
8.622343667e-29
1.743901534e-32
8.833091875e-38
3.892683498e-05
3.774084046e-05
3.541021985e-05
3.192776261e-05
2.745966958e-05
2.244177246e-05
1.743666451e-05
1.289054020e-05
9.034890538e-06
5.936226156e-06
3.571002172e-06
1.873794540e-06
7.632325162e-07
1.586456176e-07
3.502894918e-18
4.052142201e-23
4.542137896e-26
5.308324872e-29
9.858583456e-33
4.842269798e-38
3.729838975e-05
3.606227225e-05
3.367319658e-05
3.018536399e-05
2.582046729e-05
2.101929657e-05
1.629111520e-05
1.201948515e-05
8.401375687e-06
5.494448064e-06
3.278075708e-06
1.693253506e-06
6.655017356e-07
1.209862371e-07
4.513926010e-19
2.184137323e-23
2.841651879e-26
3.375021418e-29
5.797096711e-33
2.816544472e-38
3.563851970e-05
3.437169231e-05
3.195923911e-05
2.850820268e-05
2.427932972e-05
1.970458067e-05
1.524226762e-05
1.122545347e-05
7.825412341e-06
5.094028212e-06
3.013873767e-06
1.531835933e-06
5.797399703e-07
9.012738360e-08
1.075303780e-19
1.243038291e-23
1.837436072e-26
2.210008096e-29
3.537679079e-33
1.728533670e-38
3.397251153e-05
3.269295427e-05
3.028788539e-05
2.690730127e-05
2.283654358e-05
1.849019311e-05
1.428033955e-05
1.049966870e-05
7.300150509e-06
4.729929807e-06
2.774809166e-06
1.387070233e-06
5.043198765e-07
6.508447346e-08
3.477387992e-20
7.409428843e-24
1.223563834e-26
1.486673734e-29
2.235109995e-33
1.113141478e-38
3.232236280e-05
3.104595386e-05
2.867392245e-05
2.538911717e-05
2.148972569e-05
1.736834783e-05
1.339648331e-05
9.834518587e-06
6.819732447e-06
4.397862537e-06
2.557834827e-06
1.256864944e-06
4.378750404e-07
4.504773282e-08
1.357348485e-20
4.596064038e-24
8.365193556e-27
1.025105158e-29
1.458756614e-33
7.487049000e-39
3.070629937e-05
2.944637444e-05
2.712767418e-05
2.395645403e-05
2.023474635e-05
1.633137618e-05
1.258277964e-05
9.223393401e-06
6.379122214e-06
4.094148474e-06
2.360350528e-06
1.139443981e-06
3.792511347e-07
2.935383866e-08
6.032386581e-21
2.951347233e-24
5.855947964e-27
7.230481055e-30
9.813601585e-34
5.238400942e-39
2.913858542e-05
2.790578356e-05
2.565558420e-05
2.260935348e-05
1.906646913e-05
1.537194147e-05
1.183217559e-05
8.660552656e-06
5.973979086e-06
3.815632884e-06
2.180128066e-06
1.033291142e-06
3.274708207e-07
1.746394464e-08
2.951185334e-21
1.953506478e-24
4.187704533e-27
5.207187645e-30
6.790806417e-34
3.798096335e-39
2.762963598e-05
2.643202016e-05
2.426089123e-05
2.134587055e-05
1.797925941e-05
1.448319958e-05
1.113841901e-05
8.140987602e-06
5.600545530e-06
3.559591425e-06
2.015252582e-06
9.371088231e-07
2.817030572e-07
8.946181697e-09
1.555461995e-21
1.328025281e-24
3.052937419e-27
3.822417692e-30
4.823847753e-34
2.844316946e-39
2.618645119e-05
2.502971530e-05
2.294433109e-05
2.016274441e-05
1.696734530e-05
1.365885822e-05
1.049597584e-05
7.660329948e-06
5.255551537e-06
3.323663649e-06
1.864067866e-06
8.497806543e-07
2.412385025e-07
3.454454480e-09
8.703053633e-22
9.244127262e-25
2.264745414e-27
2.855389586e-30
3.509969071e-34
2.192179484e-39
2.481308087e-05
2.370090557e-05
2.170480216e-05
1.905591361e-05
1.602505060e-05
1.289317731e-05
9.899938881e-06
7.214752927e-06
4.936156736e-06
3.105796431e-06
1.725140240e-06
7.703439974e-07
2.054702322e-07
6.669898291e-10
5.114852228e-22
6.571595793e-25
1.706784572e-27
2.167519174e-30
2.611132911e-34
1.733815446e-39
2.351120557e-05
2.244563283e-05
2.053990059e-05
1.802087668e-05
1.514694835e-05
1.218095607e-05
9.345969010e-06
6.800895385e-06
4.639866266e-06
2.904200162e-06
1.597222595e-06
6.979648590e-07
1.738766083e-07
2.647992273e-12
3.132470036e-22
4.760512684e-25
1.304898008e-27
1.669822220e-30
1.982698903e-34
1.404192286e-39
2.228069154e-05
2.126245919e-05
1.944639212e-05
1.705298625e-05
1.432792756e-05
1.151750748e-05
8.830214490e-06
6.415795962e-06
4.364493028e-06
2.717307270e-06
1.479223924e-06
6.319183948e-07
1.460083801e-07
9.683248624e-17
1.986893891e-22
3.507331718e-25
1.010771602e-27
1.303960674e-30
1.534118304e-34
1.161722234e-39
2.112005488e-05
2.014894946e-05
1.842054184e-05
1.614761502e-05
1.356324629e-05
1.089860195e-05
8.349250606e-06
6.056840141e-06
4.108110012e-06
2.543735879e-06
1.370190465e-06
5.715732502e-07
1.214777687e-07
7.388150181e-18
1.298942583e-22
2.623689969e-25
7.923289870e-28
1.031006425e-30
1.207671187e-34
9.796844096e-40
2.002690313e-05
1.910199291e-05
1.745837555e-05
1.530028458e-05
1.284852969e-05
1.032043830e-05
7.900034871e-06
5.721710625e-06
3.869015334e-06
2.382273953e-06
1.269283057e-06
5.163757834e-07
9.994828003e-08
1.559065964e-18
8.718157479e-23
1.989846860e-25
6.278858128e-28
8.245463987e-31
9.657878626e-35
8.404893514e-40
1.899823630e-05
1.811811536e-05
1.655585524e-05
1.450673612e-05
1.217977024e-05
9.779601468e-06
7.479848615e-06
5.408349180e-06
3.645699396e-06
2.231844411e-06
1.175762229e-06
4.658406513e-07
8.112897130e-08
4.916750317e-19
5.988106104e-23
1.528047493e-25
5.025456052e-28
6.663809047e-31
7.835756727e-35
7.323221705e-40
1.803070882e-05
1.719365939e-05
1.570901356e-05
1.376296808e-05
1.155330437e-05
9.273013290e-06
7.086266780e-06
5.114917877e-06
3.436817522e-06
2.091493338e-06
1.088973088e-06
4.195410896e-07
6.476709979e-08
1.932076790e-19
4.197772546e-23
1.186778863e-25
4.059051483e-28
5.437747160e-31
6.441940633e-35
6.469688103e-40
1.712082154e-05
1.632493339e-05
1.491401625e-05
1.306525894e-05
1.096579699e-05
8.797900340e-06
6.717111084e-06
4.839781294e-06
3.241172968e-06
1.960372084e-06
1.008335034e-06
3.770992690e-07
5.064376640e-08
8.739381644e-20
2.996633628e-23
9.312631642e-26
3.305830896e-28
4.476408779e-31
5.359551028e-35
5.788477222e-40
1.626504692e-05
1.550831832e-05
1.416722990e-05
1.241015762e-05
1.041421512e-05
8.351766964e-06
6.370428969e-06
4.581467465e-06
3.057695070e-06
1.837723875e-06
9.333314817e-07
3.381815232e-07
3.856910594e-08
4.363394833e-20
2.174218589e-23
7.376521219e-26
2.712945539e-28
3.714719537e-31
4.507046578e-35
5.233791696e-40
1.545992287e-05
1.474033153e-05
1.346522533e-05
1.179449162e-05
9.895797900e-06
7.932354849e-06
6.044464789e-06
4.338658906e-06
2.885421946e-06
1.722868533e-06
8.635021771e-07
3.024910444e-07
2.838026399e-08
2.345150635e-20
1.600735298e-23
5.893375970e-26
2.242069308e-28
3.105661312e-31
3.828134635e-35
4.780622478e-40
1.470210878e-05
1.401765072e-05
1.280481307e-05
1.121533505e-05
9.408038999e-06
7.537625228e-06
5.737632882e-06
4.110167049e-06
2.723491292e-06
1.615199234e-06
7.984345138e-07
2.697643419e-07
1.993779261e-08
1.334918235e-20
1.194174104e-23
4.745699614e-26
1.864896205e-28
2.614288709e-31
3.281238292e-35
4.406425501e-40
1.398842507e-05
1.333716005e-05
1.218302460e-05
1.067001734e-05
8.948648466e-06
7.165727695e-06
5.448502121e-06
3.894919697e-06
2.571124512e-06
1.514168525e-06
7.377584064e-07
2.397655801e-07
1.312393995e-08
7.958066237e-21
9.016045623e-24
3.849254967e-26
1.560395734e-28
2.214500666e-31
2.835719682e-35
4.093969934e-40
1.331587932e-05
1.269593518e-05
1.159711703e-05
1.015607885e-05
8.515551323e-06
6.814990897e-06
5.175773034e-06
3.691946166e-06
2.427617699e-06
1.419282226e-06
6.811421444e-07
2.122841681e-07
7.840180723e-09
4.928470261e-21
6.881613030e-24
3.142988748e-26
1.312748425e-28
1.886659285e-31
2.469024727e-35
3.830685663e-40
1.268166769e-05
1.209125814e-05
1.104456177e-05
9.671276460e-06
8.106852052e-06
6.483885620e-06
4.918268901e-06
3.500368852e-06
2.292333509e-06
1.330094559e-06
6.282855367e-07
1.871310545e-07
4.002466763e-09
3.151666803e-21
5.304973127e-24
2.582081461e-26
1.109958197e-28
1.615841984e-31
2.164341910e-35
3.606934028e-40
1.208317097e-05
1.152061050e-05
1.052302065e-05
9.213547981e-06
7.720818328e-06
6.171025530e-06
4.674918455e-06
3.319383176e-06
2.164692367e-06
1.246200461e-06
5.789170409e-07
1.641364855e-07
1.528175157e-09
2.071405591e-21
4.126944467e-24
2.133293076e-26
9.428476738e-29
1.390609790e-31
1.908921909e-35
3.415253675e-40
1.151796245e-05
1.098165647e-05
1.003034494e-05
8.781008464e-06
7.355877508e-06
5.875147708e-06
4.444745253e-06
3.148266105e-06
2.044170698e-06
1.167232978e-06
5.327925394e-07
1.431477019e-07
2.940887297e-10
1.394089736e-21
3.237446217e-24
1.771735652e-26
8.043139798e-29
1.202086322e-31
1.693014767e-35
3.249751235e-40
1.098378800e-05
1.047223900e-05
9.564563930e-06
8.371931090e-06
7.010579159e-06
5.595091239e-06
4.226859874e-06
2.986349331e-06
1.930286591e-06
1.092857702e-06
4.896881489e-07
1.240270283e-07
2.135568593e-12
9.579186431e-22
2.559278783e-24
1.478582233e-26
6.888419998e-29
1.043356289e-31
1.509108360e-35
3.105785036e-40
1.047856882e-05
9.990370368e-06
9.123853519e-06
7.984725377e-06
6.683602794e-06
5.329802787e-06
4.020444274e-06
2.833028035e-06
1.822602358e-06
1.022769590e-06
4.494022908e-07
1.066502744e-07
3.034519451e-16
6.703906476e-22
2.037594347e-24
1.239469902e-26
5.920930332e-29
9.089674283e-32
1.351306746e-35
2.979578116e-40
1.000038211e-05
9.534219350e-06
8.706548709e-06
7.617938670e-06
6.373735525e-06
5.078311406e-06
3.824754290e-06
2.687743323e-06
1.720716855e-06
9.566902964e-07
4.117499450e-07
9.090519993e-08
2.348953989e-17
4.768839722e-22
1.632932522e-24
1.043353691e-26
5.106447313e-29
7.945992399e-32
1.214995443e-35
2.868114910e-40
9.547443749e-06
9.102086986e-06
8.311101794e-06
7.270231389e-06
6.079863987e-06
4.839726856e-06
3.639102472e-06
2.549986697e-06
1.624262852e-06
8.943652646e-07
3.765629297e-07
7.669087612e-08
5.136553142e-18
3.442311292e-22
1.316624323e-24
8.816603268e-27
4.417682575e-29
6.968007281e-32
1.096500041e-35
2.768916825e-40
9.118117359e-06
8.692417531e-06
7.936098756e-06
6.940366985e-06
5.800960627e-06
4.613231443e-06
3.462859382e-06
2.419287138e-06
1.532901474e-06
8.355593627e-07
3.436870776e-07
6.391581049e-08
1.679950063e-18
2.517774190e-22
1.067608676e-24
7.477019315e-27
3.832800754e-29
6.127931466e-32
9.928860905e-36
2.679916851e-40
8.710885855e-06
8.303764576e-06
7.580231572e-06
6.627217240e-06
5.536087446e-06
4.398070806e-06
3.295444158e-06
2.295214289e-06
1.446323269e-06
7.800590022e-07
3.129808498e-07
5.249793492e-08
6.825430653e-19
1.863705374e-22
8.702544012e-25
6.362208054e-27
3.334181962e-29
5.403307736e-32
9.017771713e-36
2.599449371e-40
8.324344977e-06
7.934802190e-06
7.242292422e-06
6.329733852e-06
5.284373761e-06
4.193551003e-06
3.136323064e-06
2.177367839e-06
1.364240812e-06
7.276651968e-07
2.843149270e-07
4.236320919e-08
3.179949187e-19
1.394653302e-22
7.128677856e-25
5.430493618e-27
2.907573698e-29
4.775856056e-32
8.212553838e-36
2.526104659e-40
7.957203673e-06
7.584296741e-06
6.921167615e-06
6.046949285e-06
5.045014459e-06
3.999031512e-06
2.984998898e-06
2.065380864e-06
1.286390362e-06
6.781965191e-07
2.575702060e-07
3.344591874e-08
1.629026418e-19
1.054100796e-22
5.866219851e-25
4.648699129e-27
2.541315672e-29
4.230551513e-32
7.497437665e-36
2.458687459e-40
7.608260126e-06
7.251112418e-06
6.615827164e-06
5.777970272e-06
4.817268084e-06
3.813917551e-06
2.841015966e-06
1.958912268e-06
1.212527258e-06
6.314841250e-07
2.326370405e-07
2.568777872e-08
8.951266391e-20
8.040257843e-23
4.848082386e-25
3.990277515e-27
2.225876791e-29
3.755037585e-32
6.859605176e-36
2.396234264e-40
7.276409883e-06
6.934198439e-06
6.325316830e-06
5.521976324e-06
4.600449997e-06
3.637661212e-06
2.703950889e-06
1.857647863e-06
1.142424887e-06
5.873725788e-07
2.094142029e-07
1.903778185e-08
5.192260169e-20
6.184701977e-23
4.022735843e-25
3.433811090e-27
1.953401131e-29
3.339096417e-32
6.288319862e-36
2.337862287e-40
6.960621168e-06
6.632579281e-06
6.048756321e-06
5.278196475e-06
4.393921876e-06
3.469751415e-06
2.573410737e-06
1.761293737e-06
1.075874756e-06
5.457177344e-07
1.878086479e-07
1.345191767e-08
3.144984417e-20
4.794579978e-23
3.350479290e-25
2.961973702e-27
1.717374895e-29
2.974188294e-32
5.774649281e-36
2.282879384e-40
6.659943509e-06
6.345351203e-06
5.785327660e-06
5.045923494e-06
4.197092891e-06
3.309717219e-06
2.449031517e-06
1.669579792e-06
1.012680536e-06
5.063856676e-07
1.677340870e-07
8.892804575e-09
1.973766330e-20
3.743822576e-23
2.800439557e-25
2.560642955e-27
1.512397108e-29
2.653188167e-32
5.311175157e-36
2.230703360e-40
6.373494790e-06
6.071675387e-06
5.534267202e-06
4.824499686e-06
4.009418182e-06
3.157119262e-06
2.330473020e-06
1.582252121e-06
9.526618952e-07
4.692524027e-07
1.491108135e-07
5.328115235e-09
1.276094115e-20
2.943044571e-23
2.348489890e-25
2.218320439e-27
1.333951526e-29
2.370124604e-32
4.891610138e-36
2.180816128e-40
6.100452940e-06
5.810773565e-06
5.294873513e-06
4.613309914e-06
3.830382620e-06
3.011549719e-06
2.217419846e-06
1.499077006e-06
8.956509404e-07
4.342027707e-07
1.318653114e-07
2.726776270e-09
8.461925589e-21
2.328053943e-23
1.975646468e-25
1.925511713e-27
1.178256833e-29
2.119921125e-32
4.510672856e-36
2.132786028e-40
5.840051581e-06
5.561922536e-06
5.066490870e-06
4.411786763e-06
3.659516304e-06
2.872625199e-06
2.109576884e-06
1.419833727e-06
8.414897223e-07
4.011290199e-07
1.159293609e-07
1.047807996e-09
5.735358431e-21
1.852363219e-23
1.666903089e-25
1.674421667e-27
1.042113840e-29
1.898305771e-32
4.163881375e-36
2.086235956e-40
5.591585498e-06
5.324447511e-06
4.848504697e-06
4.219401144e-06
3.496374895e-06
2.739992797e-06
2.006671685e-06
1.344319515e-06
7.900322680e-07
3.699317401e-07
1.012397980e-07
2.089051123e-10
3.962383576e-21
1.481936715e-23
1.410326321e-25
1.458582154e-27
9.228421924e-30
1.701610611e-32
3.847364803e-36
2.040859007e-40
5.354390823e-06
5.097720133e-06
4.640347677e-06
4.035654835e-06
3.340545025e-06
2.613322103e-06
1.908447040e-06
1.272342265e-06
7.411422075e-07
3.405169398e-07
8.773814419e-08
2.506320630e-12
2.784137993e-21
1.191677113e-23
1.196386093e-25
1.272629219e-27
8.181513325e-30
1.526715910e-32
3.557776305e-36
1.996379644e-40
5.127851181e-06
4.881157764e-06
4.441490133e-06
3.860088502e-06
3.191641755e-06
2.492300906e-06
1.814662602e-06
1.203724080e-06
6.946906974e-07
3.127977536e-07
7.537104850e-08
5.890091935e-16
1.985903323e-21
9.628872175e-24
1.017425963e-25
1.112071069e-27
7.261068841e-30
1.370955398e-32
3.292300146e-36
1.952571024e-40
4.911393365e-06
4.674210633e-06
4.251435117e-06
3.692271470e-06
3.049305021e-06
2.376640570e-06
1.725094710e-06
1.138296826e-06
6.505592137e-07
2.866926497e-07
6.408824467e-08
4.322968519e-17
1.435795216e-21
7.815533995e-24
8.672744445e-26
9.731591430e-28
6.450457158e-30
1.232007848e-32
3.048462220e-36
1.909281383e-40
4.704478122e-06
4.476370086e-06
4.069719816e-06
3.531799645e-06
2.913198682e-06
2.266071778e-06
1.639533308e-06
1.075904458e-06
6.086347509e-07
2.621254543e-07
5.384442891e-08
9.414037750e-18
1.050808722e-21
6.370804031e-24
7.409309715e-26
8.527517649e-28
5.735508968e-30
1.107880879e-32
2.824117040e-36
1.866335661e-40
4.506604580e-06
4.287161162e-06
3.895910945e-06
3.378295619e-06
2.783005274e-06
2.160337674e-06
1.557781328e-06
1.016399565e-06
5.688122372e-07
2.390249950e-07
4.459764618e-08
3.098417510e-18
7.776178888e-22
5.214089414e-24
6.343348701e-26
7.481909984e-28
5.104071886e-30
9.968687870e-33
2.617377209e-36
1.823641867e-40
4.317301985e-06
4.106135384e-06
3.729603152e-06
3.231407613e-06
2.658430758e-06
2.059201162e-06
1.479654175e-06
9.596448611e-07
5.309939425e-07
2.173243044e-07
3.630996208e-08
1.270616720e-18
5.813053836e-22
4.283652537e-24
5.441651551e-26
6.572370378e-28
4.545647144e-30
8.974488090e-33
2.426626986e-36
1.781118970e-40
4.136133167e-06
3.932875699e-06
3.570417170e-06
3.090802348e-06
2.539197233e-06
1.962438937e-06
1.404977427e-06
9.055104732e-07
4.950862572e-07
1.969606247e-07
2.894709611e-08
5.978962112e-19
4.386029200e-22
3.531954826e-24
4.677039326e-26
5.779922155e-28
4.051180119e-30
8.083252083e-33
2.250417983e-36
1.738699100e-40
3.962682869e-06
3.766990100e-06
3.417995320e-06
2.956169840e-06
2.425042296e-06
1.869839610e-06
1.333588514e-06
8.538742170e-07
4.610024910e-07
1.778755591e-07
2.247843808e-08
3.092923863e-19
3.337734393e-22
2.922103556e-24
4.027142818e-26
5.088405188e-28
3.612871556e-30
7.283521319e-33
2.087439783e-36
1.696332042e-40
3.796565066e-06
3.608111034e-06
3.272004556e-06
2.827219737e-06
2.315723540e-06
1.781206769e-06
1.265333691e-06
8.046216409e-07
4.286605195e-07
1.600138320e-07
1.687735494e-08
1.715173850e-19
2.560156756e-22
2.425403855e-24
3.473541520e-26
4.484142625e-28
3.223917516e-30
6.565247053e-33
1.936577980e-36
1.653966529e-40
3.637419692e-06
3.455892988e-06
3.132131039e-06
2.703675505e-06
2.211010307e-06
1.696353407e-06
1.200068694e-06
7.576449184e-07
3.979832191e-07
1.433237418e-07
1.212081845e-08
1.003339580e-19
1.978168199e-22
2.019325702e-24
3.000961613e-26
3.955356203e-28
2.878429194e-30
5.919641198e-33
1.796791989e-36
1.611583399e-40
3.484904325e-06
3.310014023e-06
2.998079063e-06
2.585279779e-06
2.110684451e-06
1.615105088e-06
1.137656731e-06
7.128419562e-07
3.688981456e-07
1.277567488e-07
8.189186435e-09
6.124152155e-20
1.538944190e-22
1.686154283e-24
2.596734187e-26
3.492051944e-28
2.571257149e-30
5.338862181e-33
1.667184940e-36
1.569167776e-40
3.338698046e-06
3.170166238e-06
2.869569897e-06
2.471790395e-06
2.014542455e-06
1.537296645e-06
1.077969478e-06
6.701166927e-07
3.413365840e-07
1.132674114e-07
5.065319851e-09
3.870141339e-20
1.204889672e-22
1.411878279e-24
2.250302994e-26
3.085613879e-28
2.297934600e-30
4.816085166e-33
1.546925563e-36
1.526725334e-40
3.198501238e-06
3.036065984e-06
2.746343347e-06
2.362978127e-06
1.922392118e-06
1.462771608e-06
1.020885843e-06
6.293787494e-07
3.152334977e-07
9.981303462e-08
2.731482915e-09
2.517655542e-20
9.489732221e-23
1.185346813e-24
1.952859005e-26
2.728636719e-28
2.054519479e-30
4.345227768e-33
1.435280997e-36
1.484274076e-40
3.064028267e-06
2.907440819e-06
2.628153309e-06
2.258627603e-06
1.834052286e-06
1.391383805e-06
9.662911264e-07
5.905423677e-07
2.905282185e-07
8.735373151e-08
1.161704826e-09
1.678671049e-20
7.515944312e-23
9.976828518e-25
1.697028992e-26
2.414776259e-28
1.837592564e-30
3.920957917e-33
1.331596875e-36
1.441859255e-40
2.935012540e-06
2.784037769e-06
2.514766531e-06
2.158534526e-06
1.749350577e-06
1.322994085e-06
9.140769794e-07
5.535267326e-07
2.671631777e-07
7.585226247e-08
3.012870469e-10
1.143294456e-20
5.983972062e-23
8.417570620e-25
1.476624491e-26
2.138522846e-28
1.644133937e-30
3.538437994e-33
1.235268346e-36
1.399508844e-40
2.811203730e-06
2.665614243e-06
2.405965362e-06
2.062508030e-06
1.668125067e-06
1.257470983e-06
8.641416972e-07
5.182548312e-07
2.450835450e-07
6.527380994e-08
1.611366396e-11
7.932289988e-21
4.787840687e-23
7.118320721e-25
1.286427150e-26
1.895133205e-28
1.471500756e-30
3.193448284e-33
1.145750934e-36
1.357265675e-40
2.692361773e-06
2.551947620e-06
2.301541557e-06
1.970366594e-06
1.590224954e-06
1.194690907e-06
8.163880003e-07
4.846548403e-07
2.242379097e-07
5.558601445e-08
3.066028616e-15
5.594198935e-21
3.848650807e-23
6.032897098e-25
1.122051933e-26
1.680506321e-28
1.317362479e-30
2.882216565e-33
1.062553869e-36
1.315185196e-40
2.578262220e-06