/*--------------------------------*- C++ -*----------------------------------*\
| =========                 |                                                 |
| \\      /  F ield         | OpenFOAM: The Open Source CFD Toolbox           |
|  \\    /   O peration     | Version:  5.x                                   |
|   \\  /    A nd           | Web:      www.OpenFOAM.org                      |
|    \\/     M anipulation  |                                                 |
\*---------------------------------------------------------------------------*/
FoamFile
{
    version     2.0;
    format      ascii;
    class       volScalarField;
    location    "3.5";
    object       C2H2;
}
// * * * * * * * * * * * * * * * * * * * * * * * * * * * * * * * * * * * * * //

dimensions      [0 0 0 0 0 0 0];

internalField   nonuniform List<scalar>
51080
(
0.000000000e+00
0.000000000e+00
0.000000000e+00
0.000000000e+00
0.000000000e+00
0.000000000e+00
0.000000000e+00
0.000000000e+00
0.000000000e+00
0.000000000e+00
2.941215656e-02
3.051538769e-02
3.191942832e-02
3.399125821e-02
3.721621127e-02
4.211508693e-02
4.950816274e-02
6.071388444e-02
7.755695996e-02
9.669415950e-02
0.000000000e+00
0.000000000e+00
0.000000000e+00
0.000000000e+00
0.000000000e+00
0.000000000e+00
0.000000000e+00
0.000000000e+00
2.870853713e-02
2.948907806e-02
3.065018392e-02
3.212912698e-02
3.434035947e-02
3.783855661e-02
4.307302069e-02
5.087031365e-02
6.239930265e-02
7.841705302e-02
9.494328815e-02
9.354493732e-02
0.000000000e+00
0.000000000e+00
0.000000000e+00
0.000000000e+00
0.000000000e+00
0.000000000e+00
0.000000000e+00
2.878409072e-02
2.958976263e-02
3.080118885e-02
3.233762793e-02
3.461199849e-02
3.818395776e-02
4.342637341e-02
5.106430122e-02
6.210036969e-02
7.702081000e-02
9.265107493e-02
9.601804089e-02
7.970518835e-02
0.000000000e+00
0.000000000e+00
0.000000000e+00
0.000000000e+00
0.000000000e+00
2.835069138e-02
2.889338401e-02
2.969199802e-02
3.085236027e-02
3.250207992e-02
3.477172817e-02
3.832968692e-02
4.345506200e-02
5.073066811e-02
6.111654480e-02
7.495276468e-02
9.003636847e-02
9.675541707e-02
8.630406601e-02
6.490362058e-02
0.000000000e+00
0.000000000e+00
0.000000000e+00
0.000000000e+00
2.851730290e-02
2.906323659e-02
2.987025615e-02
3.105069389e-02
3.276412268e-02
3.489227672e-02
3.835113875e-02
4.326060847e-02
5.010249014e-02
5.978066136e-02
7.259030278e-02
8.710733085e-02
9.631375834e-02
9.087765322e-02
7.355554615e-02
5.105111150e-02
0.000000000e+00
2.819868745e-02
2.841006493e-02
2.875844165e-02
2.929390930e-02
3.009167768e-02
3.125982773e-02
3.295091862e-02
3.502930025e-02
3.829521408e-02
4.292141796e-02
4.929119614e-02
5.824620517e-02
7.006693168e-02
8.391880679e-02
9.485051765e-02
9.396806326e-02
8.052918128e-02
6.080611628e-02
3.844521653e-02
2.864822579e-02
2.879816826e-02
2.910450099e-02
2.960616761e-02
3.037072536e-02
3.149822515e-02
3.313047883e-02
3.511821051e-02
3.817947501e-02
4.248344015e-02
4.836470839e-02
5.659312341e-02
6.744838664e-02
8.052353698e-02
9.248929343e-02
9.565458030e-02
8.625845142e-02
6.922364770e-02
4.892129672e-02
2.697429948e-02
2.939994004e-02
2.961105539e-02
3.004025807e-02
3.073796566e-02
3.179144375e-02
3.332862213e-02
3.518894652e-02
3.800946910e-02
4.198119599e-02
4.737289224e-02
5.488000411e-02
6.478715963e-02
7.698633416e-02
8.937778752e-02
9.589046337e-02
9.079083703e-02
7.665452428e-02
5.828822168e-02
3.807173070e-02
1.636194438e-02
3.037881859e-02
3.066556302e-02
3.124563647e-02
3.218165118e-02
3.358188841e-02
3.526880443e-02
3.779205912e-02
4.138873201e-02
4.642066893e-02
5.318206024e-02
6.214527031e-02
7.338721553e-02
8.569153633e-02
9.467235209e-02
9.396180977e-02
8.316312724e-02
6.685779876e-02
4.814428184e-02
2.818291298e-02
6.309590804e-03
3.160266788e-02
3.197810639e-02
3.273473883e-02
3.394789958e-02
3.541994294e-02
3.762676333e-02
4.086814894e-02
4.539714166e-02
5.150447058e-02
5.956665711e-02
6.980837759e-02
8.162884196e-02
9.213358582e-02
9.551588779e-02
8.861207919e-02
7.471091918e-02
5.753181773e-02
3.887286687e-02
1.907999562e-02
1.996637643e-09
3.308053344e-02
3.354830792e-02
3.449715453e-02
3.569490359e-02
3.757195763e-02
4.044252256e-02
4.446202811e-02
4.989517559e-02
5.709317667e-02
6.632602563e-02
7.738821752e-02
8.854949297e-02
9.526457946e-02
9.269936608e-02
8.175904230e-02
6.634028278e-02
4.889985277e-02
3.041951923e-02
1.055740964e-02
1.969667053e-11
3.489254431e-02
3.534878781e-02
3.616316360e-02
3.769619349e-02
4.020704528e-02
4.369315718e-02
4.845321634e-02
5.480001580e-02
6.302475157e-02
7.315369526e-02
8.426949046e-02
9.325008814e-02
9.502988910e-02
8.775278916e-02
7.452203817e-02
5.842383192e-02
4.100138740e-02
2.267339696e-02
2.651346368e-03
2.472907156e-12
3.629980722e-02
3.687606734e-02
3.812552702e-02
4.018831169e-02
4.315526728e-02
4.725387476e-02
5.277130175e-02
5.999882563e-02
6.909354315e-02
7.966024690e-02
8.979813244e-02
9.528908428e-02
9.228616525e-02
8.188784218e-02
6.743805158e-02
5.109280808e-02
3.379723117e-02
1.550411784e-02
4.161215226e-10
5.267084153e-13
3.813952468e-02
3.894288724e-02
4.051738644e-02
4.293029573e-02
4.637206275e-02
5.108377889e-02
5.733844611e-02
6.535554740e-02
7.505212071e-02
8.541223609e-02
9.347766470e-02
9.486776344e-02
8.809269911e-02
7.580354732e-02
6.074147573e-02
4.436946151e-02
2.721518513e-02
8.802245494e-03
2.074154373e-11
1.427790023e-13
4.044709783e-02
4.135751318e-02
4.314500843e-02
4.590389305e-02
4.981960987e-02
5.512804042e-02
6.206347158e-02
7.071196898e-02
8.062366868e-02
9.000518167e-02
9.513982939e-02
9.263860312e-02
8.324108232e-02
6.985405263e-02
5.451998696e-02
3.822656759e-02
2.117179671e-02
2.672696326e-03
3.845840420e-12
4.431101006e-14
4.293190685e-02
4.395819475e-02
4.597229963e-02
4.907642650e-02
5.345429755e-02
5.932239520e-02
6.684241436e-02
7.589222796e-02
8.552824261e-02
9.317029503e-02
9.498381918e-02
8.931175076e-02
7.820715719e-02
6.420507431e-02
4.879037503e-02
3.261557050e-02
1.558515079e-02
2.010837937e-09
1.078849298e-12
1.495294143e-14
4.558264386e-02
4.672778880e-02
4.897045499e-02
5.241224137e-02
5.722774599e-02
6.359508049e-02
7.156091653e-02
8.071242255e-02
8.952250120e-02
9.483517087e-02
9.344557681e-02
8.542993777e-02
7.324944280e-02
5.892445546e-02
4.353534585e-02
2.748039828e-02
1.038958924e-02
6.475819296e-11
3.751277740e-13
5.333297950e-15
4.838227638e-02
4.964512945e-02
5.211087931e-02
5.587377254e-02
6.108780123e-02
6.786846686e-02
7.609816452e-02
8.499575151e-02
9.245095944e-02
9.512912919e-02
9.099694894e-02
8.134242049e-02
6.849918656e-02
5.402959922e-02
3.872199957e-02
2.276465885e-02
5.575710457e-03
1.275583635e-11
1.492111923e-13
1.978190737e-15
5.131039439e-02
5.268651268e-02
5.536362619e-02
5.942145643e-02
6.497911024e-02
7.206074141e-02
8.033269542e-02
8.859202739e-02
9.426829783e-02
9.431922649e-02
8.802262661e-02
7.725496175e-02
6.401676583e-02
4.951210157e-02
3.431135468e-02
1.841573165e-02
1.396609868e-03
4.012098336e-12
6.518231019e-14
7.561052926e-16
5.434426645e-02
5.582624522e-02
5.869702242e-02
6.301363590e-02
6.884360609e-02
7.608810208e-02
8.415028001e-02
9.140051790e-02
9.503811006e-02
9.271172955e-02
8.479234917e-02
7.328198758e-02
5.982353589e-02
4.535084412e-02
3.026334564e-02
1.438785093e-02
2.733969443e-09
1.593336536e-12
3.054970816e-14
2.964320963e-16
5.745923335e-02
5.903682036e-02
6.207760736e-02
6.660666389e-02
7.262132396e-02
7.986787224e-02
8.745313458e-02
9.338379117e-02
9.490931721e-02
9.057998441e-02
8.147998744e-02
6.948307959e-02
5.591961271e-02
4.151907460e-02
2.653946015e-02
1.064623203e-02
1.408693832e-10
7.313555995e-13
1.514155619e-14
1.190211654e-16
6.062890726e-02
6.228896380e-02
6.547007708e-02
7.015510602e-02
7.625157071e-02
8.332240174e-02
9.016971148e-02
9.456187754e-02
9.407077024e-02
8.813552753e-02
7.819193148e-02
6.588553791e-02
5.229378790e-02
3.798824564e-02
2.310401668e-02
7.175667816e-03
3.384462830e-11
3.713812385e-13
7.862965133e-15
4.898645203e-17
6.382515577e-02
6.555166133e-02
6.883746561e-02
7.361224821e-02
7.967464483e-02
8.638368441e-02
9.226571515e-02
9.500802197e-02
9.271013490e-02
8.552869984e-02
7.499043017e-02
6.249790205e-02
4.892916783e-02
3.473017372e-02
1.992487167e-02
4.005027721e-03
1.247305947e-11
2.034481875e-13
4.251821182e-15
2.073433280e-17
6.701820870e-02
6.879229236e-02
7.214136771e-02
7.693095080e-02
8.283405174e-02
8.899818819e-02
9.373854115e-02
9.482991944e-02
9.098922209e-02
8.286083734e-02
7.190978188e-02
5.931789336e-02
4.580643896e-02
3.171806401e-02
1.697372446e-02
1.303887670e-03
5.700610605e-12
1.183356549e-13
2.384013109e-15
9.074067405e-18
7.017671813e-02
7.197678373e-02
7.534242376e-02
8.006476675e-02
8.567915761e-02
9.113324989e-02
9.461761508e-02
9.414834692e-02
8.903553563e-02
8.019778930e-02
6.896688265e-02
5.633725106e-02
4.290565864e-02
2.892711714e-02
1.422639410e-02
9.888528639e-08
2.978431730e-12
7.229877951e-14
1.381956777e-15
4.133731737e-18
7.326805098e-02
7.507003101e-02
7.840108140e-02
8.296950595e-02
8.816804736e-02
9.277749413e-02
9.495857783e-02
9.308000042e-02
8.694388370e-02
7.758096443e-02
6.616785746e-02
5.354456211e-02
4.020734832e-02
2.633470836e-02
1.166318793e-02
6.788558573e-10
1.708063852e-12
4.604407586e-14
8.263956952e-16
1.973344906e-18
7.625868909e-02
7.803645182e-02
8.127857410e-02
8.560506042e-02
9.027086935e-02
9.393768294e-02
9.483344881e-02
9.172715274e-02
8.478209567e-02
7.503532495e-02
6.351228865e-02
5.092698834e-02
3.769301113e-02
2.392040156e-02
9.269631858e-03
1.497079777e-10
1.050048344e-12
3.039301365e-14
5.089252194e-16
9.920385035e-19
7.911488148e-02
8.084085926e-02
8.393824242e-02
8.793734753e-02
9.197347870e-02
9.463937795e-02
9.432045348e-02
9.017376256e-02
8.259740097e-02
7.257495788e-02
6.099591032e-02
4.847132914e-02
3.534548652e-02
2.166592430e-02
7.038097678e-03
5.667796112e-11
6.816077227e-13
2.070278365e-14
3.223224462e-16
5.263836600e-19
8.180345194e-02
8.344950512e-02
8.634702235e-02
8.994066688e-02
9.327286289e-02
9.492279667e-02
9.349587298e-02
8.848567863e-02
8.042195324e-02
7.020682822e-02
5.861222259e-02
4.616461618e-02
3.314897578e-02
1.955501106e-02
4.971345345e-03
2.730111944e-11
4.623515787e-13
1.450204319e-14
2.096874212e-16
2.947084310e-19
8.429294378e-02
8.583136652e-02
8.847701439e-02
9.160117863e-02
9.417923225e-02
9.483749049e-02
9.242868273e-02
8.671300316e-02
7.827711920e-02
6.793324940e-02
5.635360799e-02
4.399445846e-02
3.108908641e-02
1.757326798e-02
3.091134827e-03
1.513211754e-11
3.252878891e-13
1.041693697e-14
1.399640392e-16
1.737220064e-19
8.655475678e-02
8.795951512e-02
9.030782798e-02
9.291304762e-02
9.471463224e-02
9.443701429e-02
9.117802403e-02
8.489300390e-02
7.617669278e-02
6.575357197e-02
5.421200243e-02
4.194923735e-02
2.915279523e-02
1.570805986e-02
1.462540791e-03
9.209194538e-12
2.360347887e-13
7.654689870e-15
9.575699836e-17
1.074749237e-19
8.856454903e-02
8.981273252e-02
9.182843239e-02
9.388020592e-02
9.491024548e-02
9.377441076e-02
8.979272205e-02
8.305296572e-02
7.412914956e-02
6.366530275e-02
5.217928313e-02
4.001818555e-02
2.732834650e-02
1.394840311e-02
2.776152207e-04
5.995912770e-12
1.758723173e-13
5.742580351e-15
6.707864575e-17
6.953010204e-20
9.030415661e-02
9.137846074e-02
9.303398948e-02
9.451612217e-02
9.480316203e-02
9.289906516e-02
8.831195121e-02
8.121258089e-02
7.213930538e-02
6.166481069e-02
5.024755396e-02
3.819139384e-02
2.560516118e-02
1.228484476e-02
1.823715348e-08
4.109596363e-12
1.340967247e-13
4.390393634e-15
4.806271333e-17
4.686427716e-20
9.176316623e-02
9.264957224e-02
9.392794476e-02
9.484220555e-02
9.443310205e-02
9.185488053e-02
8.676657483e-02
7.938585072e-02
7.020943393e-02
5.974787686e-02
4.840928722e-02
3.645981503e-02
2.397373980e-02
1.070944992e-02
1.278403940e-09
2.933415127e-12
1.043290990e-13
3.415316854e-15
3.518733890e-17
3.279167883e-20
9.293609134e-02
9.362596174e-02
9.452161654e-02
9.488573863e-02
9.383967337e-02
9.067955953e-02
8.518054676e-02
7.758259720e-02
6.834007401e-02
5.790998419e-02
4.665740338e-02
3.481520800e-02
2.242556426e-02
9.215827994e-03
3.835325427e-10
2.164058627e-12
8.262982648e-14
2.699472871e-15
2.629469105e-17
2.374183432e-20
9.382440876e-02
9.431478425e-02
9.483296102e-02
9.467751763e-02
9.306034821e-02
8.940469730e-02
8.357224730e-02
7.580951093e-02
6.653062543e-02
5.614653536e-02
4.498530506e-02
3.325008533e-02
2.095299477e-02
7.799201302e-03
1.708193805e-10
1.640757758e-12
6.648946356e-14
2.165179725e-15
2.003531753e-17
1.773331975e-20
9.443632977e-02
9.472967304e-02
9.488495515e-02
9.424969697e-02
9.212916417e-02
8.805625293e-02
8.195566663e-02
7.407102845e-02
6.477968431e-02
5.445299859e-02
4.338688411e-02
3.175766280e-02
1.954919975e-02
6.456695028e-03
9.211007408e-11
1.273019694e-12
5.426459802e-14
1.760196936e-15
1.554809071e-17
1.362338603e-20
9.478594904e-02
9.488945371e-02
9.470379622e-02
9.363396953e-02
9.107611473e-02
8.665527410e-02
8.034137310e-02
7.236992177e-02
6.308538953e-02
5.282501460e-02
4.185651187e-02
3.033179272e-02
1.820808206e-02
5.187804852e-03
5.569316850e-11
1.007354930e-12
4.485346174e-14
1.448836853e-15
1.227564218e-17
1.073686397e-20
9.489201744e-02
9.481665348e-02
9.431711736e-02
9.286022194e-02
8.992700735e-02
8.521865007e-02
7.873725683e-02
7.070775243e-02
6.144557077e-02
5.125839611e-02
4.038903171e-02
2.896692150e-02
1.692417790e-02
3.995337753e-03
3.636757728e-11
8.108113412e-13
3.750086716e-14
1.206272449e-15
9.850005302e-18
8.661254761e-21
9.477650129e-02
9.453592014e-02
9.375250144e-02
9.195573937e-02
8.870367072e-02
8.375982459e-02
7.714916770e-02
6.908520789e-02
5.985790041e-02
4.974920804e-02
3.897969174e-02
2.765800812e-02
1.569262428e-02
2.887184049e-03
2.510617171e-11
6.623617253e-13
3.167906652e-14
1.014960471e-15
8.024156850e-18
7.136068804e-21
9.446314033e-02
9.407259720e-02
9.303633346e-02
9.094475860e-02
8.742431570e-02
8.228942433e-02
7.558136565e-02
6.750234343e-02
5.832000671e-02
4.829375897e-02
3.762417918e-02
2.640049602e-02
1.450909801e-02
1.879932309e-03
1.807973113e-11
5.481786135e-13
2.701249946e-14
8.623258346e-16
6.629719103e-18
5.993624075e-21
9.397614141e-02
9.345153326e-02
9.219302937e-02
8.984836857e-02
8.610397964e-02
8.081581310e-02
7.403690575e-02
6.595875598e-02
5.682947959e-02
4.688859432e-02
3.631851820e-02
2.519025651e-02
1.336977034e-02
1.006734756e-03
1.345996726e-11
4.589204530e-13
2.322931615e-14
7.392065016e-16
5.549328827e-18
5.121172425e-21
9.333914175e-02
9.269623902e-02
9.124458154e-02
8.868467954e-02
8.475498598e-02
7.934553547e-02
7.251790549e-02
6.445373964e-02
5.538399754e-02
4.553049783e-02
3.505908839e-02
2.402355490e-02
1.227128953e-02
3.355667983e-04
1.029395570e-11
3.881371004e-13
2.013042988e-14
6.388900373e-16
4.701229165e-18
4.443906259e-21
9.257439971e-02
9.182830476e-02
9.021043599e-02
8.746899485e-02
8.338737543e-02
7.788366584e-02
7.102577103e-02
6.298637129e-02
5.398128321e-02
4.421648992e-02
3.384259503e-02
2.289700466e-02
1.121073128e-02
8.236902999e-06
8.049593949e-12
3.312750935e-13
1.756785728e-14
5.563841414e-16
4.027524143e-18
3.911403299e-21
9.170236352e-02
9.086711649e-02
8.910747771e-02
8.621418837e-02
8.200927816e-02
7.643413022e-02
6.956136587e-02
6.155557224e-02
5.261915727e-02
4.294382326e-02
3.266598886e-02
2.180753000e-02
1.018560782e-02
9.933376084e-09
6.413280427e-12
2.850609161e-13
1.542997605e-14
4.879226712e-16
3.486088612e-18
3.487040027e-21
9.074137482e-02
8.982979850e-02
8.795020960e-02
8.493095464e-02
8.062725625e-02
7.499991923e-02
6.812513041e-02
6.016019684e-02
5.129554307e-02
4.170991017e-02
3.152651453e-02
2.075235796e-02
9.193858390e-03
1.992946897e-09
5.191598020e-12
2.471021770e-13
1.363172671e-14
4.306377146e-16
3.046133870e-18
3.144703226e-21
8.970763465e-02
8.873122421e-02
8.675095683e-02
8.362817901e-02
7.924659054e-02
7.358328966e-02
6.671720062e-02
5.879903571e-02
5.000847657e-02
4.051240767e-02
3.042162998e-02
1.972894255e-02
8.233830695e-03
7.831006409e-10
4.260665218e-12
2.156220256e-13
1.210756402e-14
3.823255365e-16
2.684891693e-18
2.865486255e-21
8.861525962e-02
8.758421122e-02
8.552013580e-02
8.231317223e-02
7.787149252e-02
7.218592100e-02
6.533745270e-02
5.747085727e-02
4.875608594e-02
3.934910650e-02
2.934901262e-02
1.873498774e-02
7.304375466e-03
3.999434325e-10
3.538659859e-12
1.892844378e-13
1.080658808e-14
3.412804047e-16
2.385411999e-18
2.635567393e-21
8.747640754e-02
8.639968627e-02
8.426645799e-02
8.099194233e-02
7.650531007e-02
7.080900918e-02
6.398560825e-02
5.617442732e-02
4.753661427e-02
3.821798277e-02
2.830652753e-02
1.776840987e-02
6.404863666e-03
2.353011939e-10
2.969936634e-12
1.670714429e-13
9.688767065e-15
3.061681451e-16
2.134871597e-18
2.444426247e-21
8.630147984e-02
8.518689308e-02
8.299721674e-02
7.966940326e-02
7.515069032e-02
6.945339031e-02
6.266123009e-02
5.490855254e-02
4.634839923e-02
3.711714664e-02
2.729221173e-02
1.682730654e-02
5.535316216e-03
1.513394310e-10
2.515776266e-12
1.481968281e-13
8.722233070e-15
2.759233839e-16
1.923317653e-18
2.284595481e-21
8.509929427e-02
8.395363707e-02
8.171846774e-02
7.834956467e-02
7.380971100e-02
6.811960689e-02
6.136379333e-02
5.367203351e-02
4.518988122e-02
3.604487078e-02
2.630426794e-02
1.590996666e-02
4.696528899e-03
1.035183063e-10
2.148661325e-12
1.320490667e-13
7.881684825e-15
2.497062356e-16
1.743070822e-18
2.148863658e-21
8.387732276e-02
8.270647048e-02
8.043523128e-02
7.703567582e-02
7.248396405e-02
6.680795813e-02
6.009271031e-02
5.246371896e-02
4.405958963e-02
3.499951549e-02
2.534103475e-02
1.501482814e-02
3.890409228e-03
7.408405455e-11
1.848666823e-12
1.181478353e-13
7.146892054e-15
2.268571490e-16
1.588508582e-18
2.033674402e-21
8.264183281e-02
8.145084625e-02
7.915163854e-02
7.573035388e-02
7.117469223e-02
6.551857029e-02
5.884733907e-02
5.128249433e-02
4.295615123e-02
3.397959563e-02
2.440099257e-02
1.414050165e-02
3.120347302e-03
5.489199178e-11
1.601105031e-12
1.061111006e-13
6.501293703e-15
2.068347584e-16
1.455019417e-18
1.935252637e-21
8.139807238e-02
8.019133465e-02
7.787110433e-02
7.443571136e-02
6.988278398e-02
6.425140475e-02
5.762700985e-02
5.012728570e-02
4.187827224e-02
3.298371551e-02
2.348272065e-02
1.328572178e-02
2.391962950e-03
4.180732039e-11
1.394996621e-12
9.563206597e-14
5.931397749e-15
1.891970363e-16
1.338885830e-18
1.850502934e-21
8.015044916e-02
7.893170177e-02
7.659641422e-02
7.315342092e-02
6.860890282e-02
6.300634221e-02
5.643102323e-02
4.899705636e-02
4.082473220e-02
3.201057186e-02
2.258493399e-02
1.244937460e-02
1.714363202e-03
3.256299286e-11
1.222002864e-12
8.646357882e-14
5.426087428e-15
1.735829311e-16
1.237163897e-18
1.777079527e-21
7.890260706e-02
7.767508293e-02
7.532985429e-02
7.188480349e-02
6.735350331e-02
6.178313616e-02
5.525867791e-02
4.789083265e-02
3.979438371e-02
3.105895881e-02
2.170641771e-02
1.163046812e-02
1.102393791e-03
2.583896175e-11
1.075738341e-12
7.840420039e-14
4.976179088e-15
1.596960167e-16
1.147506272e-18
1.713093689e-21
7.765758479e-02
7.642405923e-02
7.407325896e-02
7.063088002e-02
6.611685400e-02
6.058147663e-02
5.410927774e-02
4.680763898e-02
3.878613572e-02
3.012774504e-02
2.084605233e-02
1.082814429e-02
5.808521227e-04
2.082787533e-11
9.512363303e-13
7.128888350e-14
4.574055818e-15
1.472917109e-16
1.068006527e-18
1.657017244e-21
7.641789035e-02
7.518073661e-02
7.282811049e-02
6.939243441e-02
6.489911803e-02
5.940103360e-02
5.298211800e-02
4.574658841e-02
3.779899736e-02
2.921587685e-02
2.000282587e-02
1.004167949e-02
1.921915328e-04
1.701578868e-11
8.446011581e-13
6.498170224e-14
4.213313139e-15
1.361656555e-16
9.971121734e-19
1.607587264e-21
7.518557929e-02
7.394684287e-02
7.159559930e-02
6.817005302e-02
6.370030573e-02
5.824138662e-02
5.187651427e-02
4.470680231e-02
3.683199766e-02
2.832237019e-02
1.917576123e-02
9.270491398e-03
7.082416043e-06
1.406410338e-11
7.527494459e-13
5.936976746e-14
3.888603582e-15
1.261478193e-16
9.335574511e-19
1.563771735e-21
7.396234781e-02
7.272377435e-02
7.037664516e-02
6.696413563e-02
6.252037002e-02
5.710212250e-02
5.079178553e-02
4.368746184e-02
3.588423252e-02
2.744630629e-02
1.836399144e-02
8.514141749e-03
2.050896925e-08
1.174331782e-11
6.732165507e-13
5.435881267e-14
3.595380673e-15
1.170947469e-16
8.762862220e-19
1.524693914e-21
7.274957549e-02
7.151266163e-02
6.917198352e-02
6.577497087e-02
6.135918143e-02
5.598279368e-02
4.972727192e-02
4.268776798e-02
3.495485457e-02
2.658681555e-02
1.756668879e-02
7.772360186e-03
4.042416186e-09
9.893858763e-12
6.040131759e-13
4.986984345e-14
3.329804671e-15
1.088855315e-16
8.244313679e-19
1.489631669e-21
7.154835829e-02
7.031438484e-02
6.798215019e-02
6.460271222e-02
6.021654416e-02
5.488293686e-02
4.868232741e-02
4.170697220e-02
3.404306340e-02
2.574309710e-02
1.678309725e-02
7.045083813e-03
1.588240607e-09
8.402390323e-12
5.435269008e-13
4.583594222e-14
3.088585538e-15
1.014175565e-16
7.772652302e-19
1.457970394e-21
7.035958800e-02
6.912965238e-02
6.680754021e-02
6.344741310e-02
5.909222224e-02
5.380208494e-02
4.765631599e-02
4.074434668e-02
3.314808403e-02
2.491438064e-02
1.601252355e-02
6.332454704e-03
8.138666254e-10
7.186817623e-12
4.904390029e-13
4.220054958e-14
2.868911794e-15
9.460312226e-17
7.341795352e-19
1.429179006e-21
6.918396322e-02
6.795898648e-02
6.564843294e-02
6.230907911e-02
5.798595425e-02
5.273975893e-02
4.664863677e-02
3.979921604e-02
3.226921332e-02
2.409996211e-02
1.525431463e-02
5.634907870e-03
4.806824427e-10
6.186655369e-12
4.436618230e-13
3.891550884e-14
2.668357770e-15
8.836742369e-17
6.946571215e-19
1.402819894e-21
6.802200899e-02
6.680279815e-02
6.450500536e-02
6.118763609e-02
5.689744004e-02
5.169548804e-02
4.565870031e-02
3.887090691e-02
3.140576327e-02
2.329915706e-02
1.450788059e-02
4.953207537e-03
3.102610211e-10
5.356642300e-12
4.022951698e-13
3.593947736e-14
2.484841671e-15
8.264626553e-17
6.582650549e-19
1.378511117e-21
6.687414288e-02
6.566135085e-02
6.337733714e-02
6.008293909e-02
5.582634081e-02
5.066879862e-02
4.468591143e-02
3.795880469e-02
3.055708663e-02
2.251134372e-02
1.377268630e-02
4.288595555e-03
2.128467248e-10
4.662479162e-12
3.655886139e-13
3.323692739e-14
2.316540898e-15
7.738385464e-17
6.246310689e-19
1.355919418e-21
6.574064162e-02
6.453484396e-02
6.226545353e-02
5.899482695e-02
5.477232560e-02
4.965921713e-02
4.372973320e-02
3.706229789e-02
2.972257737e-02
2.173591623e-02
1.304824343e-02
3.642916696e-03
1.526711841e-10
4.077813708e-12
3.329152734e-13
3.077731328e-14
2.161881254e-15
7.253203145e-17
5.934443932e-19
1.334771884e-21
6.462171284e-02
6.342337486e-02
6.116930041e-02
5.792310699e-02
5.373504313e-02
4.866628327e-02
4.278962151e-02
3.618082543e-02
2.890164004e-02
2.097232427e-02
1.233411520e-02
3.018873364e-03
1.133007574e-10
3.582190515e-12
3.037439785e-13
2.853406094e-14
2.019484743e-15
6.804906370e-17
5.644328119e-19
1.314808947e-21
6.351746066e-02
6.232697872e-02
6.008879075e-02
5.686752226e-02
5.271413603e-02
4.768953067e-02
4.186506332e-02
3.531382557e-02
2.809374567e-02
2.022002841e-02
1.162991959e-02
2.420377542e-03
8.637649625e-11
3.159551293e-12
2.776270700e-13
2.648411397e-14
1.888138642e-15
6.389825625e-17
5.373622297e-19
1.295824994e-21
6.242793291e-02
6.124563771e-02
5.902380344e-02
5.582783714e-02
5.170923333e-02
4.672852190e-02
4.095555701e-02
3.446078551e-02
2.729833935e-02
1.947853071e-02
1.093532802e-02
1.853167716e-03
6.730434237e-11
2.797170152e-12
2.541832799e-13
2.460724729e-14
1.766782948e-15
6.004764683e-17
5.120335347e-19
1.277643620e-21
6.135313736e-02
6.017927637e-02
5.797414974e-02
5.480377716e-02
5.071998351e-02
4.578281320e-02
4.006061468e-02
3.362118551e-02
2.651493921e-02
1.874736192e-02
1.025006575e-02
1.325748260e-03
5.340099269e-11
2.484901456e-12
2.330871605e-13
2.288597090e-14
1.654480075e-15
5.646935158e-17
4.882721220e-19
1.260103404e-21
6.029300367e-02
5.912778817e-02
5.693965603e-02
5.379504926e-02
4.974598681e-02
4.485198073e-02
3.917977051e-02
3.279456324e-02
2.574306547e-02
1.802608511e-02
9.573941520e-03
8.510437804e-04
4.302107462e-11
2.214551197e-12
2.140593986e-13
2.130467184e-14
1.550403640e-15
5.313841774e-17
4.659282265e-19
1.243067498e-21
5.924743121e-02
5.809104098e-02
5.592011650e-02
5.280136158e-02
4.878691457e-02
4.393558726e-02
3.831256251e-02
3.198043502e-02
2.498225788e-02
1.731427193e-02
8.906814086e-03
4.491944134e-04
3.511397915e-11
1.979480279e-12
1.968595396e-13
1.984976418e-14
1.453808842e-15
5.003316426e-17
4.448721299e-19
1.226413342e-21
5.821631320e-02
5.706886348e-02
5.491527971e-02
5.182242272e-02
4.784237934e-02
4.303323889e-02
3.745857542e-02
3.117837761e-02
2.423208735e-02
1.661154724e-02
8.248636776e-03
1.520383495e-04
2.898553115e-11
1.774252818e-12
1.812798523e-13
1.850916020e-14
1.364048384e-15
4.713397711e-17
4.249877600e-19
1.210039243e-21
5.719947722e-02
5.606106031e-02
5.392490291e-02
5.085791243e-02
4.691201805e-02
4.214454193e-02
3.661737781e-02
3.038795264e-02
2.349214293e-02
1.591753515e-02
7.599448295e-03
7.845493271e-06
2.416418946e-11
1.594410411e-12
1.671402833e-13
1.727222581e-14
1.280531511e-15
4.442357519e-17
4.061717483e-19
1.193851300e-21
5.619675212e-02
5.506743174e-02
5.294873895e-02
4.990752345e-02
4.599548808e-02
4.126908496e-02
3.578855687e-02
2.960876449e-02
2.276202020e-02
1.523189672e-02
6.959432556e-03
3.135541381e-08
2.032108065e-11
1.436254556e-12
1.542839651e-13
1.612939454e-14
1.202740558e-15
4.188672843e-17
3.883377103e-19
1.177770139e-21
5.520794934e-02
5.408774932e-02
5.198652288e-02
4.897095689e-02
4.509242841e-02
4.040649977e-02
3.497172785e-02
2.884040512e-02
2.204135618e-02
1.455431398e-02
6.328865973e-03
5.899312153e-09
1.722218023e-11
1.296714123e-12
1.425739370e-13
1.507221236e-14
1.130200540e-15
3.950939063e-17
3.714070810e-19
1.161741610e-21
5.423284861e-02
5.312177555e-02
5.103797778e-02
4.804788958e-02
4.420250273e-02
3.955643051e-02
3.416651024e-02
2.808251157e-02
2.132977851e-02
1.388449772e-02
5.708243146e-03
2.288773386e-09
1.469747269e-11
1.173216117e-12
1.318902312e-13
1.409317444e-14
1.062490423e-15
3.727915983e-17
3.553109652e-19
1.145700631e-21
5.327123533e-02
5.216929211e-02
5.010283973e-02
4.713801422e-02
4.332536275e-02
3.871849581e-02
3.337254070e-02
2.733470987e-02
2.062694478e-02
1.322218961e-02
5.098249912e-03
1.167385594e-09
1.262150654e-11
1.063598200e-12
1.221278734e-13
1.318547869e-14
9.992312214e-16
3.518524401e-17
3.399872524e-19
1.129611514e-21
5.232287783e-02
5.123002303e-02
4.918082071e-02
4.624103457e-02
4.246068391e-02
3.789235817e-02
3.258946086e-02
2.659665779e-02
1.993253743e-02
1.256714448e-02
4.499871487e-03
6.882263294e-10
1.090030968e-11
9.660330032e-13
1.131939227e-13
1.234305642e-14
9.400773406e-16
3.321720497e-17
3.253836661e-19
1.113441080e-21
5.138754551e-02
5.030373489e-02
4.827164923e-02
4.535663264e-02
4.160814008e-02
3.707768555e-02
3.181692509e-02
2.586802347e-02
1.924623172e-02
1.191915336e-02
3.914465916e-03
4.439475826e-10
9.462440063e-12
8.789727281e-13
1.050065775e-13
1.156045959e-14
8.847158104e-16
3.136617719e-17
3.114518215e-19
1.097160051e-21
5.046497907e-02
4.939015897e-02
4.737504857e-02
4.448451206e-02
4.076740065e-02
3.627413309e-02
3.105460751e-02
2.514847171e-02
1.856773953e-02
1.127804741e-02
3.343889977e-03
3.045393640e-10
8.253023860e-12
8.010940047e-13
9.749320752e-14
1.083273262e-14
8.328666644e-16
2.962389450e-17
2.981461235e-19
1.080744863e-21
4.955494038e-02
4.848904193e-02
4.649074225e-02
4.362438991e-02
3.993817194e-02
3.548139112e-02
3.030219206e-02
2.443769952e-02
1.789676970e-02
1.064367820e-02
2.790719808e-03
2.184774288e-10
7.229380426e-12
7.312713732e-13
9.058971810e-14
1.015548803e-14
7.842708068e-16
2.798281864e-17
2.854294815e-19
1.064170346e-21
4.865718974e-02
4.760012624e-02
4.561845394e-02
4.277595936e-02
3.912014408e-02
3.469914640e-02
2.955936214e-02
2.373541052e-02
1.723305595e-02
1.001594399e-02
2.258519926e-03
1.621769889e-10
6.357949408e-12
6.685321654e-13
8.423883493e-14
9.524648181e-15
7.386945669e-16
2.643618448e-17
2.732645912e-19
1.047423329e-21
4.777147241e-02
4.672315446e-02
4.475791717e-02
4.193893743e-02
3.831301249e-02
3.392709882e-02
2.882581889e-02
2.304131198e-02
1.657634929e-02
9.394780376e-03
1.752299627e-03
1.236682608e-10
5.612172002e-12
6.120413120e-13
7.838958241e-14
8.936611331e-15
6.959226608e-16
2.497756340e-17
2.616206226e-19
1.030491211e-21
4.689753186e-02
4.585786372e-02
4.390884932e-02
4.111304707e-02
3.751649264e-02
3.316495570e-02
2.810127425e-02
2.235512310e-02
1.592640501e-02
8.780181643e-03
1.279259126e-03
9.638081410e-11
4.970799594e-12
5.610779436e-13
7.299633053e-14
8.388054406e-15
6.557613006e-16
2.360131398e-17
2.504673525e-19
1.013369520e-21
4.603512866e-02
4.500400766e-02
4.307099436e-02
4.029800769e-02
3.673029727e-02
3.241242616e-02
2.738544463e-02
2.167658483e-02
1.528299266e-02
8.172193844e-03
8.499381946e-04
7.648035048e-11
4.416685279e-12
5.150133805e-13
6.801830833e-14
7.875950683e-15
6.180281608e-16
2.230214132e-17
2.397785684e-19
9.960579468e-22
4.518400497e-02
4.416132280e-02
4.224408757e-02
3.949355141e-02
3.595415732e-02
3.166923955e-02
2.667806353e-02
2.100543353e-02
1.464590715e-02
7.570938425e-03
4.801631536e-04
6.161698540e-11
3.935942416e-12
4.733050420e-13
6.341896561e-14
7.397586952e-15
5.825604922e-16
2.107535103e-17
2.295312224e-19
9.785677200e-22
4.434391912e-02
4.332956548e-02
4.142787150e-02
3.869940770e-02
3.518778875e-02
3.093512076e-02
2.597886102e-02
2.034142534e-02
1.401495690e-02
6.976622002e-03
1.939839815e-04
5.028990969e-11
3.517211754e-12
4.354763861e-13
5.916548154e-14
6.950437362e-15
5.492056879e-16
1.991631896e-17
2.197031733e-19
9.609030471e-22
4.351463461e-02
4.250847019e-02
4.062209033e-02
3.791532031e-02
3.443093597e-02
3.020980821e-02
2.528758970e-02
1.968431331e-02
1.338995738e-02
6.389553834e-03
2.716149222e-05
4.150777881e-11
3.151154024e-12
4.011098220e-13
5.522806976e-14
6.532218481e-15
5.178253352e-16
1.882102992e-17
2.102745656e-19
9.430743359e-22
4.269589621e-02
4.169782111e-02
3.982649244e-02
3.714103611e-02
3.368335773e-02
2.949305257e-02
2.460399685e-02
1.903388323e-02
1.277074783e-02
5.810172275e-03
9.174250060e-08
3.459660780e-11
2.830028362e-12
3.698427643e-13
5.158021693e-14
6.140854931e-15
4.882907449e-16
1.778573723e-17
2.012277939e-19
9.250979552e-22
4.188746865e-02