/*--------------------------------*- C++ -*----------------------------------*\
| =========                 |                                                 |
| \\      /  F ield         | OpenFOAM: The Open Source CFD Toolbox           |
|  \\    /   O peration     | Version:  5.x                                   |
|   \\  /    A nd           | Web:      www.OpenFOAM.org                      |
|    \\/     M anipulation  |                                                 |
\*---------------------------------------------------------------------------*/
FoamFile
{
    version     2.0;
    format      ascii;
    class       volScalarField;
    location    "3.5";
    object       C2H3;
}
// * * * * * * * * * * * * * * * * * * * * * * * * * * * * * * * * * * * * * //

dimensions      [0 0 0 0 0 0 0];

internalField   nonuniform List<scalar>
51080
(
0.000000000e+00
0.000000000e+00
0.000000000e+00
0.000000000e+00
0.000000000e+00
0.000000000e+00
0.000000000e+00
0.000000000e+00
0.000000000e+00
0.000000000e+00
1.480750126e-11
1.948615647e-11
2.606223428e-11
3.762764471e-11
6.107308903e-11
1.131366027e-10
2.472624079e-10
6.826369596e-10
2.778611835e-09
2.127378157e-08
0.000000000e+00
0.000000000e+00
0.000000000e+00
0.000000000e+00
0.000000000e+00
0.000000000e+00
0.000000000e+00
0.000000000e+00
1.257272533e-11
1.574788221e-11
2.083581734e-11
2.807081428e-11
4.110027852e-11
6.844149291e-11
1.297139556e-10
2.898832277e-10
8.120961398e-10
3.116929084e-09
1.781476625e-08
9.497151738e-08
0.000000000e+00
0.000000000e+00
0.000000000e+00
0.000000000e+00
0.000000000e+00
0.000000000e+00
0.000000000e+00
1.331846015e-11
1.668009170e-11
2.215291409e-11
2.996480196e-11
4.395283402e-11
7.322777870e-11
1.376738350e-10
3.011307931e-10
8.085325995e-10
2.841729672e-09
1.360123916e-08
6.578481441e-08
1.712001401e-07
0.000000000e+00
0.000000000e+00
0.000000000e+00
0.000000000e+00
0.000000000e+00
1.188085466e-11
1.411563892e-11
1.751758725e-11
2.285644142e-11
3.150507588e-11
4.589518874e-11
7.589271929e-11
1.402547709e-10
2.960470923e-10
7.550496703e-10
2.428653949e-09
1.020279403e-08
4.637003192e-08
1.342870454e-07
2.177209648e-07
0.000000000e+00
0.000000000e+00
0.000000000e+00
0.000000000e+00
1.281148725e-11
1.510951971e-11
1.863882488e-11
2.423614493e-11
3.354527426e-11
4.743030542e-11
7.710435500e-11
1.389253289e-10
2.819330672e-10
6.810628499e-10
2.017011625e-09
7.575791730e-09
3.236882964e-08
1.026750666e-07
1.903398100e-07
2.324423231e-07
0.000000000e+00
1.162890339e-11
1.252838455e-11
1.400875618e-11
1.631760690e-11
1.990645482e-11
2.561331587e-11
3.507003019e-11
4.898256762e-11
7.733784910e-11
1.350481578e-10
2.629352261e-10
6.014264172e-10
1.648643368e-09
5.597118375e-09
2.229079422e-08
7.571476553e-08
1.597603682e-07
2.218546432e-07
2.208427509e-07
1.365289104e-11
1.430072178e-11
1.563338689e-11
1.786168104e-11
2.141538945e-11
2.710371323e-11
3.649120795e-11
5.007925704e-11
7.680162259e-11
1.295251716e-10
2.417150141e-10
5.235434256e-10
1.333825295e-09
4.122755093e-09
1.517052037e-08
5.351977265e-08
1.282776335e-07
2.011423531e-07
2.297492754e-07
1.878999894e-07
1.703188879e-11
1.798770648e-11
1.997453113e-11
2.335346416e-11
2.887170271e-11
3.798300541e-11
5.095037663e-11
7.558873198e-11
1.230506639e-10
2.200796012e-10
4.514842950e-10
1.072371583e-09
3.033952255e-09
1.024907707e-08
3.625808538e-08
9.778102916e-08
1.739288281e-07
2.231636467e-07
2.181996784e-07
1.356080093e-07
2.167056212e-11
2.308442386e-11
2.605565512e-11
3.119857533e-11
3.980472499e-11
5.181626862e-11
7.380986717e-11
1.154284392e-10
2.005779289e-10
3.882422278e-10
8.606435727e-10
2.237354296e-09
6.912172232e-09
2.370397939e-08
7.023644038e-08
1.427921535e-07
2.055161989e-07
2.277812051e-07
1.909623162e-07
6.182919808e-08
2.803652061e-11
3.012390478e-11
3.456332033e-11
4.239042471e-11
5.318115297e-11
7.247196266e-11
1.089606892e-10
1.809035019e-10
3.330305558e-10
6.915713462e-10
1.658619643e-09
4.681617000e-09
1.514334994e-08
4.741946705e-08
1.103421241e-07
1.796382912e-07
2.224251142e-07
2.182347487e-07
1.501305752e-07
2.329565782e-14
3.676916500e-11
3.978845887e-11
4.634691960e-11
5.551032653e-11
7.213833184e-11
1.038430298e-10
1.641854064e-10
2.862333971e-10
5.580859308e-10
1.239886496e-09
3.202344345e-09
9.595082614e-09
3.030073438e-08
7.950922919e-08
1.481637075e-07
2.052884812e-07
2.265754002e-07
1.973957012e-07
9.564486056e-08
3.311133897e-16
4.933158011e-11
5.283965379e-11
5.948882766e-11
7.348599088e-11
1.011379264e-10
1.513222677e-10
2.489643550e-10
4.552000401e-10
9.388588105e-10
2.224261205e-09
6.112365486e-09
1.864970433e-08
5.318045034e-08
1.141768165e-07
1.789266518e-07
2.200253147e-07
2.204100635e-07
1.672275559e-07
2.738589808e-08
5.300776285e-17
6.071727807e-11
6.582181576e-11
7.787913852e-11
1.010600775e-10
1.428008000e-10
2.210291323e-10
3.783073754e-10
7.247222284e-10
1.578134131e-09
3.961125343e-09
1.131965198e-08
3.326426131e-08
8.134961984e-08
1.462112553e-07
2.012381743e-07
2.253844294e-07
2.061111041e-07
1.286407920e-07
5.230121719e-15
1.326076877e-17
7.808153034e-11
8.662555247e-11
1.052798843e-10
1.394150127e-10
2.021435926e-10
3.230548023e-10
5.745061228e-10
1.151382245e-09
2.637486406e-09
6.930104612e-09
1.990366883e-08
5.336170149e-08
1.107990294e-07
1.728636261e-07
2.154964350e-07
2.231470989e-07
1.853534118e-07
8.164066925e-08
3.447079560e-16
3.982452070e-18
1.044532770e-10
1.164369192e-10
1.429336185e-10
1.926992716e-10
2.862573341e-10
4.716026655e-10
8.700471284e-10
1.819776999e-09
4.357193780e-09
1.175840755e-08
3.258973723e-08
7.707176613e-08
1.382645710e-07
1.933351539e-07
2.227999255e-07
2.149304245e-07
1.592710808e-07
2.742779694e-08
7.796416829e-17
1.311396115e-18
1.396224615e-10
1.564976554e-10
1.942215552e-10
2.663369568e-10
4.048292957e-10
6.865108127e-10
1.311401617e-09
2.851913895e-09
7.065296961e-09
1.909346998e-08
4.917737155e-08
1.018172027e-07
1.619625059e-07
2.078848149e-07
2.243977160e-07
2.020570666e-07
1.285098760e-07
2.313538390e-14
2.520798158e-17
4.544388814e-19
1.864878822e-10
2.102004886e-10
2.637135523e-10
3.675574628e-10
5.709838979e-10
9.951450915e-10
1.963469767e-09
4.414912193e-09
1.115494024e-08
2.934055527e-08
6.850125155e-08
1.254665531e-07
1.812767184e-07
2.172227254e-07
2.214507509e-07
1.855415505e-07
9.337009617e-08
9.465466250e-16
9.693447994e-18
1.623079482e-19
2.487878856e-10
2.819529485e-10
3.574437091e-10
5.059590293e-10
8.023479819e-10
1.434658915e-09
2.914011446e-09
6.721498083e-09
1.701448449e-08
4.240766846e-08
8.897354298e-08
1.467274681e-07
1.962737366e-07
2.221833818e-07
2.149477079e-07
1.661236840e-07
5.429494228e-08
2.233015501e-16
4.134308608e-18
5.912072051e-20
3.313511736e-10
3.774763679e-10
4.833103780e-10
6.941940210e-10
1.122333654e-09
2.054455343e-09
4.276643839e-09
1.001557957e-08
2.490723423e-08
5.767779273e-08
1.091697297e-07
1.650250587e-07
2.073497201e-07
2.235708250e-07
2.056905329e-07
1.443174159e-07
1.452461405e-08
8.058991539e-17
1.891626178e-18
2.185848601e-20
4.404049502e-10
5.041731017e-10
6.515844306e-10
9.487968444e-10
1.561595862e-09
2.918461471e-09
6.190112326e-09
1.453863411e-08
3.485086000e-08
7.423130380e-08
1.280980387e-07
1.802530537e-07
2.150228090e-07
2.220956483e-07
1.943102435e-07
1.204689077e-07
3.092236619e-14
3.556733485e-17
9.119875993e-19
8.193402002e-21
5.839510588e-10
6.715753215e-10
8.755310513e-10
1.291152186e-09
2.159557002e-09
4.106544547e-09
8.810928633e-09
2.047879280e-08
4.658068290e-08
9.113650516e-08
1.451992965e-07
1.925659145e-07
2.198235056e-07
2.183569840e-07
1.812925380e-07
9.483394937e-08
1.904039766e-15
1.770617310e-17
4.585578045e-19
3.117335989e-21
7.722242523e-10
8.918846522e-10
1.172136189e-09
1.748556133e-09
2.965762623e-09
5.714005214e-09
1.229750393e-08
2.791003344e-08
5.961739466e-08
1.076391244e-07
1.602395284e-07
2.022421699e-07
2.222433169e-07
2.128458473e-07
1.670047575e-07
6.771726377e-08
5.273762015e-16
9.569463701e-18
2.390018288e-19
1.207611771e-21
1.018231307e-09
1.180601877e-09
1.562928678e-09
2.355282456e-09
4.040690329e-09
7.847951759e-09
1.678882144e-08
3.676019281e-08
7.339469180e-08
1.232202293e-07
1.731950804e-07
2.096029432e-07
2.227136098e-07
2.059575109e-07
1.517213827e-07
3.982134791e-08
2.179953422e-16
5.497946453e-18
1.286518992e-19
4.787476790e-22
1.338373772e-09
1.557236324e-09
2.074836856e-09
3.153493895e-09
5.455468958e-09
1.061958461e-08
2.237355693e-08
4.681835003e-08
8.737642470e-08
1.375739879e-07
1.841637342e-07
2.149683735e-07
2.216017713e-07
1.980056909e-07
1.356467439e-07
1.350584696e-08
1.093878298e-16
3.315194159e-18
7.136256083e-20
1.956067835e-22
1.753124145e-09
2.046046777e-09
2.740993862e-09
4.193718363e-09
7.289886347e-09
1.413366527e-08
2.906692411e-08
5.777873437e-08
1.011247378e-07
1.505557801e-07
1.933050673e-07
2.186352759e-07
2.192141527e-07
1.892370402e-07
1.189359773e-07
1.042486617e-12
6.170158366e-17
2.080602736e-18
4.073381001e-20
8.305973813e-23
2.287719522e-09
2.676755133e-09
3.601341326e-09
5.534574833e-09
9.628132707e-09
1.847404282e-08
3.680183464e-08
6.929939607e-08
1.143205459e-07
1.621315694e-07
2.008032046e-07
2.208679513e-07
2.158031001e-07
1.798438521e-07
1.017159446e-07
8.142673065e-15
3.769084785e-17
1.351252458e-18
2.390404802e-20
3.695692790e-23
2.972782081e-09
3.485096151e-09
4.702800829e-09
7.241334754e-09
1.255249275e-08
2.368687287e-08
4.543735295e-08
8.105295553e-08
1.267546420e-07
1.723365203e-07
2.068450552e-07
2.218962289e-07
2.115741030e-07
1.699747629e-07
8.410901819e-08
2.003085103e-15
2.441506499e-17
9.043355629e-19
1.441182481e-20
1.734021304e-23
3.844753062e-09
4.513058150e-09
6.098764719e-09
9.382954099e-09
1.613621489e-08
2.977097568e-08
5.478092883e-08
9.275845840e-08
1.383062322e-07
1.812460249e-07
2.116084698e-07
2.219163605e-07
2.066938124e-07
1.597442468e-07
6.626674753e-08
8.319933166e-16
1.655291646e-17
6.217022571e-19
8.921575467e-21
8.608760303e-24
4.945945647e-09
5.808567413e-09
7.847598188e-09
1.202772222e-08
2.043165257e-08
3.667483386e-08
6.461643247e-08
1.041942904e-07
1.489201769e-07
1.889556163e-07
2.152564681e-07
2.210943646e-07
2.012960852e-07
1.492398481e-07
4.842697800e-08
4.337919236e-16
1.164323448e-17
4.379230259e-19
5.667446999e-21
4.524487293e-24
6.324056536e-09
7.424412440e-09
1.000993443e-08
1.523868110e-08
2.546238575e-08
4.430197055e-08
7.472945856e-08
1.151979697e-07
1.585870291e-07
1.955685835e-07
2.179346111e-07
2.195695142e-07
1.954882258e-07
1.385282293e-07
3.103304651e-08
2.573917612e-16
8.444114104e-18
3.154071594e-19
3.692235028e-21
2.513085118e-24
8.030850943e-09
9.416174684e-09
1.264520310e-08
1.906498104e-08
3.121811377e-08
5.252293698e-08
8.492530413e-08
1.256587137e-07
1.673274013e-07
2.011882983e-07
2.197714444e-07
2.174580090e-07
1.893558761e-07
1.276605981e-07
1.503984752e-08
1.661641442e-16
6.285148635e-18
2.318656439e-19
2.465268339e-21
1.470874512e-24
1.011996816e-08
1.183925026e-08
1.580755041e-08
2.353556859e-08
3.765395425e-08
6.119021338e-08
9.503886096e-08
1.355077474e-07
1.751806301e-07
2.059134659e-07
2.208787970e-07
2.148565571e-07
1.829668546e-07
1.166769371e-07
2.887996499e-09
1.138875954e-16
4.784303724e-18
1.737086742e-19
1.685748678e-21
9.039039705e-25
1.264412541e-08
1.474598606e-08
1.953857608e-08
2.865461491e-08
4.469468756e-08
7.015266990e-08
1.049375374e-07
1.447085530e-07
1.821964818e-07
2.098359547e-07
2.213534993e-07
2.118452247e-07
1.763747719e-07
1.056096964e-07
1.947464700e-13
8.164697297e-17
3.714009490e-18
1.324415606e-19
1.179576915e-21
5.810430794e-25
1.565184207e-08
1.817945592e-08
2.386273268e-08
3.439942003e-08
5.224226297e-08
7.926673575e-08
1.145201757e-07
1.532482146e-07
1.884299846e-07
2.130397188e-07
2.212790544e-07
2.084903376e-07
1.696215981e-07
9.448761557e-08
1.475675963e-14
6.062869215e-17
2.933565811e-18
1.026355782e-19
8.438866460e-22
3.892427458e-25
1.918141298e-08
2.216886392e-08
2.878360764e-08
4.072166664e-08
6.018524565e-08
8.840384682e-08
1.237135585e-07
1.611307408e-07
1.939374339e-07
2.156003516e-07
2.207269720e-07
2.048466881e-07
1.627401708e-07
8.333957008e-08
4.745508355e-15
4.631623217e-17
2.353165552e-18
8.075009333e-20
6.166970832e-22
2.708045827e-25
2.325712796e-08
2.672590553e-08
3.428223283e-08
4.755156397e-08
6.840793560e-08
9.745436874e-08
1.324675134e-07
1.683717536e-07
1.987742852e-07
2.175857511e-07
2.197588154e-07
2.009593990e-07
1.557557353e-07
7.219860279e-08
2.248917076e-15
3.622044722e-17
1.913888098e-18
6.443105370e-20
4.599088155e-22
1.950391737e-25
2.788596941e-08
3.184243396e-08
4.031791293e-08
5.480389909e-08
7.679800625e-08
1.063282454e-07
1.407506545e-07
1.749943205e-07
2.029936760e-07
2.190560925e-07
2.184270957e-07
1.968656140e-07
1.486877360e-07
6.110808181e-08
1.282191696e-15
2.888791741e-17
1.576110136e-18
5.208480327e-20
3.496340784e-22
1.449455794e-25
3.305592530e-08
3.749014892e-08
4.683136733e-08
6.238497362e-08
8.525181985e-08
1.149545785e-07
1.485463183e-07
1.810260810e-07
2.066456537e-07
2.200648491e-07
2.167767067e-07
1.925958778e-07
1.415508528e-07
5.012982200e-08
8.152515049e-16
2.342950085e-17
1.312632220e-18
4.261728337e-20
2.706739739e-22
1.108368880e-25
3.873605737e-08
4.362244753e-08
5.374949333e-08
7.019888066e-08
9.367782448e-08
1.232791340e-07
1.558487662e-07
1.864972713e-07
2.097767359e-07
2.206593383e-07
2.148462905e-07
1.881753178e-07
1.343560438e-07
3.935765678e-08
5.571850291e-16
1.927951951e-17
1.104410524e-18
3.526476799e-20
2.131644498e-22
8.699225015e-26
4.487855687e-08
5.017794293e-08
6.099076305e-08
7.815285431e-08
1.019978331e-07
1.312626151e-07
1.626607779e-07
1.914389679e-07
2.124296853e-07
2.208811757e-07
2.126685908e-07
1.836244233e-07
1.271114393e-07
2.894076452e-08
4.009379148e-16
1.606594936e-17
9.378796448e-19
2.948643367e-20
1.705938689e-22
6.991383861e-26
5.142240725e-08
5.708494895e-08
6.847055277e-08
8.616108439e-08
1.101472381e-07
1.388778324e-07
1.689909597e-07
1.958825383e-07
2.146439142e-07
2.207672376e-07
2.102719533e-07
1.789598702e-07
1.198230333e-07
1.912817508e-08
2.998743439e-16
1.353715977e-17
8.032195166e-19
2.489415060e-20
1.385950515e-22
5.741460343e-26
5.829745262e-08
6.426630495e-08
7.610572672e-08
9.414689359e-08
1.180741898e-07
1.461075250e-07
1.748521267e-07
1.998583441e-07
2.164552476e-07
2.203499823e-07
2.076804713e-07
1.741952718e-07
1.124953250e-07
1.036066369e-08
2.311373430e-16
1.151860076e-17
6.932113928e-19
2.120512184e-20
1.141748231e-22
4.806796096e-26
6.542910930e-08
7.164380357e-08
8.381784485e-08
1.020439988e-07
1.257384196e-07
1.529425124e-07
1.802601269e-07
2.033957801e-07
2.178961481e-07
2.196580903e-07
2.049147789e-07
1.693416044e-07
1.051319929e-07
3.472674163e-09
1.825052727e-16
9.886774229e-18
6.024957705e-19
1.821221807e-20
9.527797601e-23
4.094920522e-26
7.274219323e-08
7.914167260e-08
9.153582919e-08
1.097965866e-07
1.331095881e-07
1.593798255e-07
1.852323824e-07
2.065228470e-07
2.189963249e-07
2.187167837e-07
2.019927518e-07
1.644076954e-07
9.773625949e-08
8.493828676e-11
1.469806094e-16
8.552457527e-18
5.270389474e-19
1.576152007e-20
8.046929252e-23
3.544755972e-26
8.016427189e-08
8.668937937e-08
9.919680642e-08
1.173589402e-07
1.401660031e-07
1.654212383e-07
1.897874876e-07
2.092659170e-07
2.197825968e-07
2.175485537e-07
1.989294556e-07
1.594005293e-07
9.031170031e-08
1.066991952e-13
1.203379647e-16
7.450113641e-18
4.637638042e-19
1.373708713e-20
6.871991158e-23
3.113076024e-26
8.762807940e-08
9.422316819e-08
1.067468645e-07
1.246944660e-07
1.468929626e-07
1.710723612e-07
1.939445500e-07
2.116498905e-07
2.202793084e-07
2.161730851e-07
1.957380685e-07
1.543257351e-07
8.286268965e-08
2.245341502e-14
9.990912312e-17
6.530873536e-18
4.103016840e-19
1.205079811e-20
5.928801893e-23
2.769684144e-26
9.507282867e-08
1.016871097e-07
1.141407558e-07
1.317749193e-07
1.532818033e-07
1.763414532e-07
1.977226080e-07
2.136979552e-07
2.205085334e-07
2.146079465e-07
1.924297337e-07
1.491875054e-07
7.539501432e-08
9.224816655e-15
8.394541279e-17
5.757740912e-18
3.648103388e-19
1.063508391e-20
5.163215744e-23
2.493124633e-26
1.024452457e-07
1.090331783e-07
1.213415980e-07
1.385790612e-07
1.593284611e-07
1.812386705e-07
2.011404630e-07
2.154316575e-07
2.204901381e-07
2.128686102e-07
1.890140387e-07
1.439891631e-07
6.791715906e-08
4.911586889e-15
7.126628503e-17
5.102409939e-18
3.258478216e-19
9.437772746e-21
4.535397559e-23
2.267975794e-26
1.096995971e-07
1.162211633e-07
1.283196672e-07
1.450917899e-07
1.650327511e-07
1.857755602e-07
2.042164630e-07
2.168712033e-07
2.202424206e-07
2.109689280e-07
1.854992434e-07
1.387331180e-07
6.044122580e-08
3.004553918e-15
6.105141794e-17
4.542948748e-18
2.922708371e-19
8.418134636e-21
4.015548110e-23
2.082704669e-26
1.167974799e-07
1.232180974e-07
1.350521778e-07
1.513029981e-07
1.703974343e-07
1.899647065e-07
2.069683558e-07
2.180352616e-07
2.197816951e-07
2.089209809e-07
1.818923442e-07
1.334211457e-07
5.298476539e-08
2.004471534e-15
5.271815330e-17
4.062146505e-18
2.631634593e-19
7.543785248e-21
3.580871736e-23
1.929216720e-26
1.237072882e-07
1.299976455e-07
1.415218408e-07
1.572070034e-07
1.754275714e-07
1.938190585e-07
2.094131256e-07
2.189411728e-07
2.191228506e-07
2.067357617e-07
1.781994183e-07
1.280545179e-07
4.557287257e-08
1.419099959e-15
4.584413350e-17
3.646426740e-18
2.377942151e-19
6.789255866e-21
3.213952979e-23
1.799958359e-26
1.304038064e-07
1.365392701e-07
1.477165921e-07
1.628013537e-07
1.801298969e-07
1.973519090e-07
2.115669992e-07
2.196048908e-07
2.182794856e-07
2.044228482e-07
1.744254520e-07
1.226340148e-07
3.824231396e-08
1.049083159e-15
4.011765147e-17
3.284976792e-18
2.155747465e-19
6.134561816e-21
2.902084951e-23
1.691084662e-26
1.368673137e-07
1.428275968e-07
1.536281731e-07
1.680866303e-07
1.845126043e-07
2.005765883e-07
2.134454696e-07
2.200413130e-07
2.172638678e-07
2.019908944e-07
1.705749556e-07
1.171602650e-07
3.104654506e-08
8.014935094e-16
3.530460771e-17
2.969083872e-18
1.960209528e-19
5.563364073e-21
2.634990010e-23
1.598687928e-26
1.430829114e-07
1.488515763e-07
1.592520876e-07
1.730653685e-07
1.885847660e-07
2.035062539e-07
2.150631437e-07
2.202641900e-07
2.160872219e-07
1.994475724e-07
1.666514729e-07
1.116336058e-07
2.406473168e-08
6.283945767e-16
3.122687801e-17
2.691659541e-18
1.787365586e-19
5.062369500e-21
2.404475341e-23
1.519612054e-26
1.490399497e-07
1.546038667e-07
1.645865202e-07
1.777421626e-07
1.923560068e-07
2.061538489e-07
2.164339104e-07
2.202862257e-07
2.147597374e-07
1.967996840e-07
1.626581963e-07
1.060544502e-07
1.741666436e-08
5.030785286e-16
2.774679388e-17
2.446930862e-18
1.633937347e-19
4.620749010e-21
2.204105636e-23
1.451482331e-26
1.547311266e-07
1.600803137e-07
1.696320263e-07
1.821226917e-07
1.958365142e-07
2.085320672e-07
2.175707845e-07
2.201192558e-07
2.132906781e-07
1.940532888e-07
1.585975826e-07
1.004231893e-07
1.128855145e-08
4.097442976e-16
2.475721462e-17
2.230137885e-18
1.497205515e-19
4.229640324e-21
2.028788772e-23
1.392406338e-26
1.601524035e-07
1.652792582e-07
1.743911263e-07
1.862138692e-07
1.990366512e-07
2.106529859e-07
2.184861726e-07
2.197741968e-07
2.116884401e-07
1.912138327e-07
1.544717722e-07
9.474043739e-08
5.979361118e-09
3.385721222e-16
2.217343961e-17
2.037340402e-18
1.374907320e-19
3.881747995e-21
1.874423089e-23
1.340867401e-26
1.653020297e-07
1.702012032e-07
1.788678188e-07
1.900232878e-07
2.019667682e-07
2.125285532e-07
2.191916210e-07
2.192610196e-07
2.099607989e-07
1.882860709e-07
1.502825565e-07
8.900720068e-08
1.980934343e-09
2.832113002e-16
1.992798001e-17
1.865261474e-18
1.265134267e-19
3.570997865e-21
1.737693125e-23
1.295624015e-26
1.701803869e-07
1.748484414e-07
1.830671314e-07
1.935590617e-07
2.046372794e-07
2.141700674e-07
2.196979717e-07
2.185892180e-07
2.081148014e-07
1.852743032e-07
1.460312048e-07
8.322507911e-08
7.273496781e-11
2.394112922e-16
1.796665058e-17
1.711153926e-18
1.166287428e-19
3.292347354e-21
1.615912894e-23
1.255669958e-26
1.747894413e-07
1.792245172e-07
1.869952245e-07
1.968297455e-07
2.070584592e-07
2.155882812e-07
2.200156136e-07
2.177673449e-07
2.061567745e-07
1.821823932e-07
1.417188902e-07
7.739637803e-08
2.166118567e-13
2.042457366e-16
1.624548759e-17
1.572702016e-18
1.077004076e-19
3.041554986e-21
1.506859216e-23
1.220158100e-26
1.791325486e-07
1.833340737e-07
1.906586836e-07
1.998440415e-07
2.092403679e-07
2.167936406e-07
2.201540237e-07
2.168035184e-07
2.040926367e-07
1.790135774e-07
1.373463966e-07
7.152458497e-08
4.425779479e-14
1.756483183e-16
1.472850815e-17
1.447949992e-18
9.961303505e-20
2.815055857e-21
1.408716689e-23
1.188395479e-26
1.832142354e-07
1.871827537e-07
1.940649282e-07
2.026107326e-07
2.111927146e-07
2.177960056e-07
2.201223639e-07
2.157050650e-07
2.019277219e-07
1.757708795e-07
1.329142937e-07
6.561479312e-08
1.799956090e-14
1.521287318e-16
1.338615348e-17
1.335226310e-18
9.226755378e-20
2.609831438e-21
1.319971941e-23
1.159796885e-26
1.870396506e-07
1.907766480e-07
1.972213231e-07
2.051387358e-07
2.129251998e-07
2.186048060e-07
2.199289535e-07
2.144789204e-07
1.996668082e-07
1.724569476e-07
1.284231194e-07
5.967396165e-08
9.533577231e-15
1.325910437e-16
1.219392777e-17
1.233107871e-18
8.557909446e-20
2.423309761e-21
1.239366570e-23
1.133860287e-26
1.906147427e-07
1.941225051e-07
2.001356900e-07
2.074366994e-07
2.144468944e-07
2.192289883e-07
2.195819120e-07
2.131314782e-07
1.973144208e-07
1.690740199e-07
1.238731086e-07
5.371189826e-08
5.811794516e-15
1.162156618e-16
1.113136730e-17
1.140373297e-18
7.947430743e-20
2.253301731e-21
1.165837531e-23
1.110174158e-26
1.939459011e-07
1.972272765e-07
2.028160227e-07
2.095133668e-07
2.157667472e-07
2.196770556e-07
2.190886010e-07
2.116686002e-07
1.948746271e-07
1.656240981e-07
1.192644048e-07
4.774197173e-08
3.866845318e-15
1.023800780e-16
1.018132653e-17
1.055967279e-18
7.389012022e-20
2.097932743e-21
1.098498682e-23
1.088381672e-26
1.970398315e-07
2.000981763e-07
2.052701264e-07
2.113770900e-07
2.168932612e-07
2.199569944e-07
2.184559567e-07
2.100958493e-07
1.923510069e-07
1.621089233e-07
1.145971935e-07
4.178279458e-08
2.731104151e-15
9.060569878e-17
9.329339178e-18
9.789759256e-19
6.877121356e-20
1.955579157e-21
1.036592725e-23
1.068173344e-26
1.999034940e-07
2.027426488e-07
2.075059840e-07
2.130362538e-07
2.178347138e-07
2.200764955e-07
2.176906404e-07
2.084182071e-07
1.897470458e-07
1.585299126e-07
1.098715798e-07
3.585991721e-08
2.014495107e-15
8.051948480e-17
8.563183144e-18
9.086087486e-19
6.406975525e-20
1.824842041e-21
9.794886691e-24
1.049296673e-26
2.025439223e-07
2.051679666e-07
2.095313314e-07
2.144987262e-07
2.185988341e-07
2.200427417e-07
2.167986845e-07
2.066404481e-07
1.870656376e-07
1.548884614e-07
1.050877421e-07
3.000898105e-08
1.535700764e-15
7.182774480e-17
7.872381405e-18
8.441736880e-19
5.974378552e-20
1.704510671e-21
9.266374896e-24
1.031513338e-26
2.049683267e-07
2.073815415e-07
2.113537651e-07
2.157723019e-07
2.191932914e-07
2.198625787e-07
2.157859231e-07
2.047669046e-07
1.843097134e-07
1.511854755e-07
1.002458713e-07
2.427987800e-08
1.201402260e-15
6.429668659e-17
7.248002639e-18
7.850664798e-19
5.575636759e-20
1.593524933e-21
8.775689709e-24
1.014635085e-26
2.071837590e-07
2.093907311e-07
2.129808708e-07
2.168645821e-07
2.196252170e-07
2.195424873e-07
2.146576741e-07
2.028016336e-07
1.814815665e-07
1.474219004e-07
9.534639262e-08
1.874403450e-08
9.596987467e-16
5.773844703e-17
6.682365058e-18
7.307538072e-19
5.207513566e-20
1.490962308e-21
8.318839135e-24
9.985010831e-27
2.091973996e-07
2.112026775e-07
2.144199147e-07
2.177827002e-07
2.199014205e-07
2.190885394e-07
2.134190248e-07
2.007482736e-07
1.785836317e-07
1.435984352e-07
9.038985503e-08
1.350517419e-08
7.799083584e-16
5.200123247e-17
6.168837238e-18
6.807722209e-19
4.867145495e-20
1.396018527e-21
7.892341299e-24
9.829649169e-27
2.110161285e-07
2.128244428e-07
2.156779846e-07
2.185336852e-07
2.200283845e-07
2.185065127e-07
2.120746889e-07
1.986104047e-07
1.756178048e-07
1.397156999e-07
8.537738587e-08
8.717729567e-09
6.429878452e-16
4.696080611e-17
5.701674974e-18
6.347054223e-19
4.552005178e-20
1.307977326e-21
7.493213051e-24
9.679030808e-27
2.126469130e-07
2.142629668e-07
2.167620229e-07
2.191241231e-07
2.200124698e-07
2.178018500e-07
2.106290370e-07
1.963910885e-07
1.725859602e-07
1.357740129e-07
8.031027515e-08
4.616736727e-09
5.366283945e-16
4.251514817e-17
5.275876854e-18
5.921894582e-19
4.259812916e-20
1.226215727e-21
7.118877968e-24
9.532055264e-27
2.140964536e-07
2.155249879e-07
2.176786591e-07
2.195604541e-07
2.198594197e-07
2.169797365e-07
2.090862864e-07
1.940933451e-07
1.694897073e-07
1.317737934e-07
7.519064200e-08
1.562821900e-09
4.525958584e-16
3.857964194e-17
4.887086495e-18
5.528985868e-19
3.988584569e-20
1.150172966e-21
6.767039713e-24
9.387813181e-27
2.153712293e-07
2.166169911e-07
2.184342354e-07
2.198488767e-07
2.195748786e-07
2.160450201e-07
2.074502416e-07
1.917198267e-07
1.663304575e-07
1.277152531e-07
7.002127298e-08
8.037247647e-11
3.852277579e-16
3.508401239e-17
4.531487799e-18
5.165450798e-19
3.736509185e-20
1.079354725e-21
6.435662976e-24
9.245469990e-27
2.164776534e-07
2.175452331e-07
2.190349514e-07
2.199951463e-07
2.191643234e-07
2.150022012e-07
2.057244930e-07
1.892731127e-07
1.631094920e-07
1.235985021e-07
6.480623520e-08
3.284471415e-13
3.305251776e-16
3.196921585e-17
4.205729159e-18
4.828686561e-19
3.501997525e-20
1.013325988e-21
6.123041393e-24
9.104323996e-27
2.174218674e-07
2.183159572e-07
2.194868260e-07
2.200049743e-07
2.186326756e-07
2.138556561e-07
2.039124687e-07
1.867553864e-07
1.598279272e-07
1.194236175e-07
5.955068985e-08
6.375210508e-14
2.856071090e-16
2.918561635e-17
3.906852694e-18
4.516383191e-19
3.283590430e-20
9.516873263e-22
5.827629187e-24
8.963899935e-27
2.182098246e-07
2.189349033e-07
2.197954521e-07
2.198836261e-07
2.179847827e-07
2.126094485e-07
2.020172852e-07
1.841688688e-07
1.564866889e-07
1.151906741e-07
5.426196673e-08
2.549640853e-14
2.483540946e-16
2.669112015e-17
3.632248630e-18
4.226480281e-19
3.079994647e-20
8.940863081e-22
5.548072965e-24
8.823629245e-27
2.188472981e-07
2.194079153e-07
2.199664304e-07
2.196362322e-07
2.172252266e-07
2.112673507e-07
2.000419313e-07
1.815153673e-07
1.530866050e-07
1.108997815e-07
4.894959738e-08
1.339193612e-14
2.171825885e-16
2.444990996e-17
3.379612176e-18
3.957103055e-19
2.890043589e-20
8.402151149e-22
5.283155897e-24
8.683205472e-27
2.193399039e-07
2.197402360e-07
2.200048437e-07
2.192676850e-07
2.163582858e-07
2.098330027e-07
1.979890518e-07
1.787966351e-07
1.496283523e-07
1.065509259e-07
4.362649905e-08
8.122494780e-15
1.908916219e-16
2.243137353e-17
3.146884941e-18
3.706569529e-19
2.712674546e-20
7.897793449e-22
5.031847178e-24
8.542344894e-27
2.196928891e-07
2.199372907e-07
2.199157269e-07
2.187825865e-07
2.153880607e-07
2.083098365e-07
1.958612323e-07
1.760143523e-07
1.461124923e-07
1.021442664e-07
3.830998042e-08
5.385326252e-15
1.685566264e-16
2.060926673e-17
2.932240393e-18
3.473366210e-19
2.546923698e-20
7.425271656e-22
4.793197385e-24
8.400800603e-27
2.199114046e-07
2.200039684e-07
2.197039824e-07
2.181853224e-07
2.143184323e-07
2.067009440e-07
1.936608322e-07
1.731698183e-07
1.425395525e-07
9.768006176e-08
3.302326621e-08
3.793644354e-15
1.494586929e-16
1.896089561e-17
2.734043429e-18
3.256108926e-19
2.391928292e-20
6.982252007e-22
4.566319100e-24
8.258377703e-27
2.200004596e-07
2.199451481e-07
2.193740998e-07
2.174801452e-07
2.131530850e-07
2.050093272e-07
1.913901221e-07
1.702644105e-07
1.389098074e-07
9.315864834e-08
2.779809236e-08
2.792420131e-15
1.330315481e-16
1.746674757e-17
2.550839746e-18
3.053567768e-19
2.246890427e-20
6.566608174e-22
4.350479962e-24
8.114868295e-27
2.199647108e-07
2.197655042e-07
2.189304042e-07
2.166710224e-07
2.118954328e-07
2.032378698e-07
1.890509906e-07
1.672993012e-07
1.352235602e-07
8.858065579e-08
2.267797837e-08
2.125053036e-15
1.188244293e-16
1.610975437e-17
2.381320423e-18
2.864595090e-19
2.111088597e-20
6.176432501e-22
4.144954463e-24
7.970172229e-27
2.198087440e-07
2.194692859e-07
2.183771824e-07
2.157617364e-07
2.105487947e-07
2.013891425e-07
1.866453932e-07
1.642754953e-07
1.314810385e-07
8.394690577e-08
1.772350509e-08
1.659993026e-15
1.064762086e-16
1.487510372e-17
2.224310195e-18
2.688173768e-19
1.983859952e-20
5.809921907e-22
3.949135782e-24
7.824193197e-27
2.195368680e-07
2.190608828e-07
2.177183185e-07
2.147558868e-07
2.091162801e-07
1.994656297e-07
1.841750662e-07
1.611938594e-07
1.276823264e-07
7.925870534e-08
1.302079848e-08
1.324286797e-15
9.569445386e-17
1.374988424e-17
2.078749410e-18
2.523361706e-19
1.864605605e-20
5.465490898e-22
3.762435934e-24
7.676908760e-27
2.191532259e-07
2.185442122e-07
2.169576288e-07
2.136568810e-07
2.076007346e-07
1.974696460e-07
1.816415370e-07
1.580552685e-07
1.238275059e-07
7.451778006e-08
8.694239648e-09
1.074917523e-15
8.624016302e-17
1.272269604e-17
1.943684642e-18
2.369297714e-19
1.752764092e-20
5.141656251e-22
3.584340195e-24
7.528330244e-27
2.186618174e-07
2.179231659e-07
2.160986737e-07
2.124679675e-07
2.060049741e-07
1.954033431e-07
1.790463749e-07
1.548603345e-07
1.199166021e-07
6.972655149e-08
4.927224663e-09
8.852436211e-16
7.791751801e-17
1.178360947e-17
1.818254672e-18
2.225206956e-19
1.647832315e-20
4.837100154e-22
3.414393600e-24
7.378570483e-27
2.180664461e-07
2.172013960e-07
2.151449871e-07
2.111922338e-07
2.043315059e-07
1.932686854e-07
1.763908302e-07
1.516096719e-07
1.159496374e-07
6.488826169e-08
1.991702683e-09
7.380673638e-16
7.056438638e-17
1.092380355e-17
1.701681030e-18
2.090366066e-19
1.549339217e-20
4.550535669e-22
3.252162457e-24
7.227681540e-27
2.173706897e-07
2.163823823e-07
2.140996872e-07
2.098325350e-07
2.025828957e-07
1.910675856e-07
1.736761427e-07
1.483037249e-07
1.119265961e-07
6.000725984e-08
2.781054318e-10
6.219063693e-16
6.404584769e-17
1.013546866e-17
1.593251158e-18
1.964118308e-19
1.456857699e-20
4.280840597e-22
3.097255199e-24
7.075767780e-27
2.165780115e-07
2.154695152e-07
2.129659796e-07
2.083916577e-07
2.007614189e-07
1.888017934e-07
1.709033897e-07
1.449429953e-07
1.078474530e-07
5.508930272e-08
9.496351325e-13
5.288685894e-16
5.824870543e-17
9.411764487e-18
1.492328152e-18
1.845865688e-19
1.369989956e-20
4.026969193e-22
2.949322082e-24
6.922985002e-27
2.156917587e-07