/*--------------------------------*- C++ -*----------------------------------*\
| =========                 |                                                 |
| \\      /  F ield         | OpenFOAM: The Open Source CFD Toolbox           |
|  \\    /   O peration     | Version:  5.x                                   |
|   \\  /    A nd           | Web:      www.OpenFOAM.org                      |
|    \\/     M anipulation  |                                                 |
\*---------------------------------------------------------------------------*/
FoamFile
{
    version     2.0;
    format      ascii;
    class       volScalarField;
    location    "3.5";
    object       C2H4;
}
// * * * * * * * * * * * * * * * * * * * * * * * * * * * * * * * * * * * * * //

dimensions      [0 0 0 0 0 0 0];

internalField   nonuniform List<scalar>
51080
(
9.883831739e-01
9.878066182e-01
9.866802096e-01
9.849511385e-01
9.825128913e-01
9.792081714e-01
9.748217463e-01
9.690687060e-01
9.615825415e-01
9.519047141e-01
3.016402532e-01
3.094092377e-01
3.169255097e-01
3.252150994e-01
3.338625158e-01
3.406931943e-01
3.417849784e-01
3.293006349e-01
2.862996928e-01
1.856813322e-01
9.839057326e-01
9.831103086e-01
9.815585613e-01
9.791824222e-01
9.758425951e-01
9.713351727e-01
9.653828740e-01
9.576223493e-01
2.965585261e-01
3.032420289e-01
3.109408247e-01
3.183655509e-01
3.265397970e-01
3.348945483e-01
3.407430004e-01
3.398946497e-01
3.243034325e-01
2.801491865e-01
1.940318939e-01
9.779207431e-02
9.781746864e-01
9.771051407e-01
9.750227928e-01
9.718438387e-01
9.673950076e-01
9.614238143e-01
9.535890818e-01
2.981838666e-01
3.047154062e-01
3.123117739e-01
3.195848831e-01
3.274476656e-01
3.353006129e-01
3.404215204e-01
3.388949231e-01
3.235480852e-01
2.829879333e-01
2.077260765e-01
1.189054583e-01
5.789286474e-02
9.710355997e-01
9.696339965e-01
9.669114351e-01
9.627720714e-01
9.570131302e-01
2.946284250e-01
2.998097597e-01
3.059480784e-01
3.129386514e-01
3.204701928e-01
3.279420058e-01
3.353648789e-01
3.400363631e-01
3.384797618e-01
3.244601870e-01
2.885107720e-01
2.222314713e-01
1.386059051e-01
7.426888369e-02
3.572328742e-02
9.623699784e-01
9.605755806e-01
9.570980668e-01
9.518299699e-01
2.968589683e-01
3.017007583e-01
3.075227582e-01
3.142408015e-01
3.216246634e-01
3.282860196e-01
3.352571528e-01
3.396469398e-01
3.384118361e-01
3.261767189e-01
2.949410566e-01
2.368971499e-01
1.586114350e-01
9.099201209e-02
4.809002973e-02
2.197300841e-02
9.521117806e-01
2.938768061e-01
2.961431946e-01
2.994554608e-01
3.038096511e-01
3.091760805e-01
3.154536139e-01
3.223989220e-01
3.286457586e-01
3.350603981e-01
3.392626317e-01
3.385304601e-01
3.282433704e-01
3.015798086e-01
2.512505503e-01
1.791032928e-01
1.091062935e-01
6.131444554e-02
3.153671953e-02
1.300158417e-02
2.986701507e-01
3.000205463e-01
3.025645643e-01
3.062400582e-01
3.109875591e-01
3.166865040e-01
3.230862086e-01
3.288657927e-01
3.347998199e-01
3.388721518e-01
3.387209121e-01
3.303986929e-01
3.080705144e-01
2.650163548e-01
1.998448726e-01
1.291442023e-01
7.609790755e-02
4.215851172e-02
2.050113917e-02
7.067898538e-03
3.049156522e-01
3.063953869e-01
3.091592078e-01
3.130925045e-01
3.180531802e-01
3.237875568e-01
3.290329928e-01
3.344780860e-01
3.384620632e-01
3.388998995e-01
3.324623047e-01
3.141706023e-01
2.779393888e-01
2.203721692e-01
1.511955431e-01
9.307727590e-02
5.427474255e-02
2.917258040e-02
1.293672595e-02
3.214899134e-03
3.112104729e-01
3.127763647e-01
3.156685341e-01
3.197018669e-01
3.246200262e-01
3.292175915e-01
3.340966797e-01
3.379871765e-01
3.389963803e-01
3.342784845e-01
3.196764748e-01
2.897662885e-01
2.401116829e-01
1.748466667e-01
1.127860052e-01
6.840326582e-02
3.928262628e-02
2.006533356e-02
7.705070216e-03
8.883080830e-04
3.173222600e-01
3.189125541e-01
3.218087285e-01
3.257375511e-01
3.295636573e-01
3.338020320e-01
3.375330305e-01
3.390149491e-01
3.358151231e-01
3.244804036e-01
3.002983396e-01
2.584941975e-01
1.992145784e-01
1.354621021e-01
8.513968340e-02
5.121414106e-02
2.860778236e-02
1.355047547e-02
4.120590748e-03
1.786207781e-10
3.230227847e-01
3.245390811e-01
3.272756604e-01
3.301737050e-01
3.336888579e-01
3.371312836e-01
3.389180671e-01
3.370157881e-01
3.285209904e-01
3.094124901e-01
2.750558519e-01
2.231620105e-01
1.607557237e-01
1.050770720e-01
6.547142823e-02
3.884215152e-02
2.081142498e-02
8.848953668e-03
1.752371328e-03
4.209332563e-13
3.282952120e-01
3.293905605e-01
3.311509257e-01
3.338631570e-01
3.368853707e-01
3.387445920e-01
3.378373113e-01
3.317336822e-01
3.170239375e-01
2.894697031e-01
2.455820241e-01
1.875694162e-01
1.285560724e-01
8.267300241e-02
5.116812389e-02
2.968518098e-02
1.502172011e-02
5.460663405e-03
3.358494080e-04
1.749141086e-14
3.314177261e-01
3.324954994e-01
3.344811321e-01
3.368407342e-01
3.385650352e-01
3.383207033e-01
3.341165874e-01
3.231020994e-01
3.015462697e-01
2.655902218e-01
2.142731066e-01
1.552327260e-01
1.034519063e-01
6.612076878e-02
4.048448330e-02
2.276452394e-02
1.067908480e-02
3.052015857e-03
2.802020587e-11
1.528647345e-15
3.344918272e-01
3.355312690e-01
3.371028444e-01
3.384626895e-01
3.385496288e-01
3.357466949e-01
3.277079755e-01
3.112478160e-01
2.826301781e-01
2.392079945e-01
1.837624819e-01
1.281353585e-01
8.435350846e-02
5.364932109e-02
3.231954302e-02
1.745382052e-02
7.407531440e-03
1.396115130e-03
4.614893832e-13
1.972599202e-16
3.370332633e-01
3.376961989e-01
3.385054291e-01
3.386173002e-01
3.367432277e-01
3.309827862e-01
3.186830817e-01
2.964872040e-01
2.611164695e-01
2.120635735e-01
1.561884846e-01
1.064870615e-01
6.975885658e-02
4.404436020e-02
2.596519958e-02
1.333370618e-02
4.945764745e-03
3.443789846e-04
3.534607766e-14
3.241351883e-17
3.384283586e-01
3.386576604e-01
3.385797529e-01
3.372290594e-01
3.331102495e-01
3.240680032e-01
3.072296651e-01
2.793141706e-01
2.380756008e-01
1.858659721e-01
1.326728577e-01
8.948086123e-02
5.842794876e-02
3.650242317e-02
2.094903288e-02
1.011277312e-02
3.107743464e-03
1.873347435e-10
4.795269834e-15
6.264681772e-18
3.386334105e-01
3.383651325e-01
3.372730171e-01
3.342702012e-01
3.276720775e-01
3.151167933e-01
2.936435820e-01
2.603720594e-01
2.146800134e-01
1.619431597e-01
1.133196429e-01
7.608405721e-02
4.947223154e-02
3.048418282e-02
1.694431676e-02
7.582546181e-03
1.758870181e-03
2.417590331e-12
9.053149828e-16
1.358755140e-18
3.376157071e-01
3.367890266e-01
3.345681564e-01
3.297546165e-01
3.205017100e-01
3.043124573e-01
2.783149531e-01
2.404044458e-01
1.920274463e-01
1.410264701e-01
9.762702559e-02
6.540676753e-02
4.227588369e-02
2.561746947e-02
1.371801762e-02
5.590432874e-03
8.017337466e-04
2.259150851e-13
2.134214367e-16
3.213473929e-19
3.353610002e-01
3.339228983e-01
3.304778455e-01
3.237325488e-01
3.117180715e-01
2.918987412e-01
2.617072892e-01
2.201849542e-01
1.709807728e-01
1.232600479e-01
8.490849310e-02
5.677513091e-02
3.640954561e-02
2.163798561e-02
1.109971064e-02
4.022729813e-03
1.766345499e-04
3.819489721e-14
5.914881228e-17
8.144133907e-20
3.318749241e-01
3.297827545e-01
3.250413712e-01
3.162864909e-01
3.014806045e-01
2.781697608e-01
2.443286318e-01
2.004319303e-01
1.520738693e-01
1.083937122e-01
7.452454398e-02
4.969918899e-02
3.156799518e-02
1.835315649e-02
8.962166330e-03
2.793470797e-03
2.700211659e-10
8.968163738e-15
1.856635081e-17
2.189834243e-20
3.271825094e-01
3.244056997e-01
3.183222144e-01
3.075278237e-01
2.899838653e-01
2.634572654e-01
2.266958384e-01
1.817310002e-01
1.355018154e-01
9.600493356e-02
6.595657003e-02
4.382433941e-02
2.752946789e-02
1.561959193e-02
7.208812914e-03
1.836966942e-03
7.110145492e-12
2.621962966e-15
6.440701879e-18
6.216739093e-21
3.213272050e-01
3.178485431e-01
3.104060546e-01
2.975937709e-01
2.774514229e-01
2.481153144e-01
2.092942487e-01
1.644922423e-01
1.211975838e-01
8.565052428e-02
5.880651173e-02
3.889122093e-02
2.412934224e-02
1.332852927e-02
5.765302275e-03
1.102791932e-03
9.709124102e-13
8.999787722e-16
2.428302182e-18
1.861685379e-21
3.143698475e-01
3.101865382e-01
3.013989789e-01
2.866442523e-01
2.641287944e-01
2.325018434e-01
1.925369186e-01
1.489332218e-01
1.089407075e-01
7.693797303e-02
5.277413278e-02
3.470725950e-02
2.124313337e-02
1.139620683e-02
4.573737379e-03
5.532126028e-04
2.209952149e-13
3.497477975e-16
9.834151689e-19
5.895910233e-22
3.063878152e-01
3.015122482e-01
2.914256653e-01
2.748582034e-01
2.502747882e-01
2.169584840e-01
1.767430711e-01
1.351017993e-01
9.845109774e-02
6.954504327e-02
4.763300218e-02
3.112698467e-02
1.877513296e-02
9.757238432e-03
3.588564332e-03
1.669982559e-04
6.664648431e-14
1.501799644e-16
4.241958382e-19
1.985377623e-22
2.974740782e-01
2.919343619e-01
2.806273019e-01
2.624292515e-01
2.361512762e-01
2.017887455e-01
1.621243242e-01
1.229224161e-01
8.944887131e-02
6.321625891e-02
4.321099595e-02
2.803883871e-02
1.665069344e-02
8.360035366e-03
2.773640691e-03
1.256452793e-08
2.424097916e-14
7.003248248e-17
1.936707665e-19
7.157967243e-23
2.877361708e-01
2.815761685e-01
2.691589149e-01
2.495601141e-01
2.220119086e-01
1.872431906e-01
1.487860775e-01
1.122473852e-01
8.168333678e-02
5.775150521e-02
3.937576398e-02
2.535599912e-02
1.481087870e-02
7.163483055e-03
2.100081336e-03
5.369589646e-11
1.011309910e-14
3.501653471e-17
9.314210045e-20
2.780626753e-23
2.772948087e-01
2.705736913e-01
2.571860275e-01
2.364560179e-01
2.080897297e-01
1.735118109e-01
1.367434844e-01
1.028990594e-01
7.494215699e-02
5.299430158e-02
3.602431026e-02
2.300998546e-02
1.320865392e-02
6.134533126e-03
1.544682710e-03
7.819438102e-12
4.691411737e-15
1.859067857e-17
4.700519747e-20
1.168148520e-23
2.662818830e-01
2.590729463e-01
2.448802509e-01
2.233173410e-01
1.945853660e-01
1.607187603e-01
1.259454548e-01
9.469797931e-02
6.905066730e-02
4.882169872e-02
3.307554004e-02
2.094621348e-02
1.180613874e-02
5.246426875e-03
1.088802002e-03
2.057584389e-12
2.369781168e-15
1.040003940e-17
2.481331126e-20
5.307362352e-24
2.548379868e-01
2.472266849e-01
2.324141791e-01
2.103311503e-01
1.816629063e-01
1.489257225e-01
1.162995370e-01
8.747820930e-02
6.386703820e-02
4.513644283e-02
3.046482072e-02
1.912069506e-02
1.057255525e-02
4.477342030e-03
7.176478079e-04
7.186940328e-13
1.284002900e-15
6.092773033e-18
1.366380874e-20
2.599782905e-24
2.431089303e-01
2.351900746e-01
2.199555218e-01
1.976624077e-01
1.694443248e-01
1.381413012e-01
1.076930203e-01
8.109384288e-02
5.927658907e-02
4.186087980e-02
2.814017189e-02
1.749766188e-02
9.482705664e-03
3.809377189e-03
4.201739587e-04
2.992754556e-13
7.378746022e-16
3.719037739e-18
7.829652613e-21
1.365986048e-24
2.312417551e-01
2.231159210e-01
2.076601498e-01
1.854509516e-01
1.580081498e-01
1.283337903e-01
1.000082552e-01
7.542020941e-02
5.518654959e-02
3.893245905e-02
2.605933411e-02
1.604779914e-02
8.515830403e-03
3.227762564e-03
1.905298596e-04
1.409894113e-13
4.458320414e-16
2.355237379e-18
4.658337776e-21
7.652786891e-25
2.193799576e-01
2.111490703e-01
1.956659598e-01
1.738070933e-01
1.473926046e-01
1.194444763e-01
9.313220373e-02
7.035244035e-02
5.152152799e-02
3.630038327e-02
2.418767709e-02
1.474689110e-02
7.654719971e-03
2.720259005e-03
3.609081490e-05
7.288994734e-14
2.812695917e-16
1.541891339e-18
2.871586969e-21
4.543795135e-25
2.076579317e-01
1.994200534e-01
1.840908344e-01
1.628090694e-01
1.376013951e-01
1.113993573e-01
8.696152564e-02
6.580299809e-02
4.821998766e-02
3.392300144e-02
2.249659359e-02
1.357480539e-02
6.885018629e-03
2.276668127e-03
2.203350096e-09
4.054488637e-14
1.842446837e-16
1.040209063e-18
1.830382994e-21
2.842691187e-25
1.961961228e-01
1.880430944e-01
1.730284865e-01
1.525038233e-01
1.286116463e-01
1.041184246e-01
8.140458126e-02
6.169902664e-02
4.523130891e-02
3.176593569e-02
2.096227317e-02
1.251470186e-02
6.194699167e-03
1.888466478e-03
1.161159402e-10
2.393399576e-14
1.247310562e-16
7.211695556e-19
1.204046544e-21
1.864017020e-25
1.850991216e-01
1.771127239e-01
1.625466451e-01
1.429100667e-01
1.203818024e-01
9.752194277e-02
7.638156271e-02
5.797986128e-02
4.251362484e-02
2.980059232e-02
1.956478784e-02
1.155240932e-02
5.573623597e-03
1.548513251e-03
2.687347826e-11
1.484285506e-14
8.693132004e-17
5.125657888e-19
8.158624951e-22
1.275086915e-25
1.744522018e-01
1.667009377e-01
1.526874382e-01
1.340229124e-01
1.128589833e-01
9.153437092e-02
7.182384023e-02
5.459479122e-02
4.003208015e-02
2.800298467e-02
1.828731762e-02
1.067594364e-02
5.013216069e-03
1.250814931e-03
9.448741592e-12
9.596195946e-15
6.216925339e-17
3.726617522e-19
5.684265286e-22
9.061310364e-26
1.643194362e-01
1.568568735e-01
1.434696275e-01
1.258194935e-01
1.059848325e-01
8.608654572e-02
6.767268332e-02
5.150134099e-02
3.775742068e-02
2.635291031e-02
1.711561990e-02
9.875121715e-03
4.506185940e-03
9.903575522e-04
4.103497646e-12
6.428829834e-15
4.549340168e-17
2.766110402e-19
4.064430054e-22
6.662816316e-26
1.547433539e-01
1.476079555e-01
1.348921199e-01
1.182643167e-01
9.969995114e-02
8.111634252e-02
6.387796881e-02
4.866374680e-02
3.566499232e-02
2.483323675e-02
1.603755877e-02
9.141244076e-03
4.046321766e-03
7.629862100e-04
2.033445542e-12
4.441300011e-15
3.398147601e-17
2.092413462e-19
2.977395989e-22
5.052031792e-26
1.457465301e-01
1.389623360e-01
1.269381112e-01
1.113142472e-01
9.394673064e-02
7.656892210e-02
6.039695295e-02
4.605173200e-02
3.373386090e-02
2.342931999e-02
1.504273529e-02
8.466853445e-03
3.628293299e-03
5.653520237e-04
1.104983665e-12
3.151473986e-15
2.585486997e-17
1.610479053e-19
2.230775796e-22
3.938588341e-26
1.373339603e-01
1.309122333e-01
1.195795187e-01
1.049224593e-01
8.867120286e-02
7.239611284e-02
5.719308213e-02
4.363957406e-02
3.194617143e-02
2.212863211e-02
1.412220431e-02
7.845521666e-03
3.247522354e-03
3.949532723e-04
6.433732349e-13
2.289367352e-15
2.000099426e-17
1.259390688e-19
1.706689319e-22
3.148438657e-26
1.294960858e-01
1.234377209e-01
1.127808972e-01
9.904133723e-02
8.382388164e-02
6.855591967e-02
5.423506930e-02
4.140524447e-02
3.028659630e-02
2.092036347e-02
1.326824149e-02
7.271697449e-03
2.900060179e-03
2.503747399e-04
3.954275052e-13
1.697925592e-15
1.570606105e-17
9.992847096e-20
1.331279552e-22
2.574561856e-26
1.222125764e-01
1.165102780e-01
1.065027575e-01
9.362459201e-02
7.936009088e-02
6.501182434e-02
5.149604324e-02
3.932985483e-02
2.874189526e-02
1.979515346e-02
1.247413264e-02
6.740557768e-03
2.582488605e-03
1.320104161e-04
2.539107656e-13
1.282632735e-15
1.250140927e-17
8.035144849e-20
1.057028509e-22
2.148104432e-26
1.154553811e-01
1.100960406e-01
1.007042486e-01
8.862851886e-02
7.523989914e-02
6.173204678e-02
4.895279666e-02
3.739708982e-02
2.730064346e-02
1.874485787e-02
1.173403925e-02
6.247907316e-03
2.291845152e-03
4.416320125e-05
1.690653253e-13
9.849206776e-16
1.007340469e-17
6.540224531e-20
8.530730078e-23
1.824987548e-26
1.091917905e-01
1.041584921e-01
9.534487755e-02
8.401264270e-02
7.142789794e-02
5.868893740e-02
4.658528397e-02
3.559279890e-02
2.595284790e-02
1.776237666e-02
1.104285481e-02
5.790077784e-03
2.025550583e-03
1.121405993e-06
1.160705256e-13
7.674820345e-16
8.207937855e-18
5.383361305e-20
6.989231410e-23
1.576362579e-26
1.033868148e-01
9.866036599e-02
9.038590437e-02
7.974008240e-02
6.789275548e-02
5.585842992e-02
4.437606987e-02
3.390465465e-02
2.468978843e-02
1.684148088e-02
1.039608856e-02
5.363853366e-03
1.781356926e-03
1.170290383e-09
8.180363581e-14
6.059750926e-16
6.756071995e-18
4.476867980e-20
5.805921271e-23
1.381996857e-26
9.800490606e-02
9.356522508e-02
8.579098748e-02
7.577751928e-02
6.460686865e-02
5.321946647e-02
4.230993188e-02
3.232187414e-02
2.350380685e-02
1.597667029e-02
9.789794143e-03
4.966409855e-03
1.557304804e-03
1.971846715e-10
5.897676759e-14
4.841687033e-16
5.612601310e-18
3.758230295e-20
4.884262005e-23
1.227859139e-26
9.301138057e-02
8.883823473e-02
8.152661059e-02
7.209506222e-02
6.154587727e-02
5.075362878e-02
4.037356557e-02
3.083498433e-02
2.238815881e-02
1.516311726e-02
9.220482040e-03
4.595248376e-03
1.351674518e-03
6.569523579e-11
4.337119855e-14
3.910177761e-16
4.702081137e-18
3.182289751e-20
4.156551461e-23
1.104044542e-26
8.837312581e-02
8.444687347e-02
7.756216838e-02
6.866602776e-02
5.868831705e-02
4.844476329e-02
3.855525542e-02
2.943563577e-02
2.133687675e-02
1.439651921e-02
8.685061673e-03
4.248160869e-03
1.162972944e-03
2.870571634e-11
3.245748243e-14
3.188729749e-16
3.969699780e-18
2.716032805e-20
3.574746476e-23
1.003467281e-26
8.405916244e-02
8.036110617e-02
7.387001174e-02
6.546663570e-02
5.601521940e-02
4.627862483e-02
3.684468355e-02
2.811641563e-02
2.034464676e-02
1.367305735e-02
8.180779801e-03
3.923193175e-03
9.898989948e-04
1.456848218e-11
2.466955994e-14
2.623469098e-16
3.375069537e-18
2.335026769e-20
3.104163739e-23
9.208786876e-27
8.004090621e-02
7.655348566e-02
7.042518477e-02
6.247575039e-02
5.350982512e-02
4.424261992e-02
3.523269011e-02
2.687077029e-02
1.940675197e-02
1.298933012e-02
7.705184740e-03
3.618598649e-03
8.313346785e-04
8.143358092e-12
1.901144449e-14
2.175826159e-16
2.887987202e-18
2.020807719e-20
2.719041804e-23
8.525526948e-27
7.629221241e-02
7.299912279e-02
6.720534652e-02
5.967453139e-02
5.115729416e-02
4.232561662e-02
3.371115060e-02
2.569282707e-02
1.851897429e-02
1.234229421e-02
7.256083012e-03
3.332826570e-03
6.863286045e-04
4.873949973e-12
1.483397216e-14
1.817841666e-16
2.485764094e-18
1.759479886e-20
2.400347505e-23
7.950871544e-27
7.278931684e-02
6.967556274e-02
6.419042233e-02
5.704625220e-02
4.894444380e-02
4.051769816e-02
3.227282806e-02
2.457735696e-02
1.767752282e-02
1.172920582e-02
6.831514408e-03
3.064486889e-03
5.541141634e-04
3.071111968e-12
1.170466808e-14
1.528988380e-16
2.151182551e-18
1.540555051e-20
2.134437184e-23
7.467499750e-27
6.951072214e-02
6.656254699e-02
6.136251353e-02
5.457595727e-02
4.685955299e-02
3.881003823e-02
3.091123950e-02
2.351965665e-02
1.687900370e-02
1.114761402e-02
6.429708478e-03
2.812339610e-03
4.341185498e-04
2.014899434e-12
9.329506001e-15
1.293978443e-16
1.870913311e-18
1.355834497e-20
1.910590683e-23
7.057751832e-27
6.643704297e-02
6.364192118e-02
5.870556129e-02
5.225036453e-02
4.489212916e-02
3.719473079e-02
2.962057980e-02
2.251549825e-02
1.612034993e-02
1.059530033e-02
6.049072445e-03
2.575266442e-03
3.260200511e-04
1.365945605e-12
7.505094225e-15
1.101296015e-16
1.634618171e-18
1.198904630e-20
1.720475280e-23
6.707420789e-27
6.355084553e-02
6.089734815e-02
5.620521232e-02
5.005754097e-02
4.303282901e-02
3.566471664e-02
2.839561138e-02
2.156106461e-02
1.539878761e-02
1.007025592e-02
5.688173004e-03
2.352263977e-03
2.298571702e-04
9.515330970e-13
6.088258778e-15
9.421928163e-17
1.434182688e-18
1.064729907e-20
1.557680677e-23
6.405846874e-27
6.083645748e-02
5.831416874e-02
5.384861143e-02
4.798684847e-02
4.127325099e-02
3.421360395e-02
2.723162257e-02
2.065291361e-02
1.471180409e-02
9.570665466e-03
5.345706350e-03
2.142426435e-03
1.462567649e-04
6.782859500e-13
4.976930998e-15
8.099458372e-17
1.263201681e-18
9.493237587e-21
1.417228202e-23
6.144554089e-27
5.827974589e-02
5.587922980e-02
5.162418755e-02
4.602870160e-02
3.960583144e-02
3.283565957e-02
2.612434376e-02
1.978789016e-02
1.405711210e-02
9.094872332e-03
5.020485792e-03
1.944937091e-03
7.692917514e-05
4.931682425e-13
4.097166921e-15
6.993440419e-17
1.116582383e-18
8.495103456e-21
1.295182386e-23
5.916758825e-27
5.586802784e-02
5.358068157e-02
4.952155509e-02
4.417449996e-02
3.802379540e-02
3.152569902e-02
2.506990487e-02
1.896317437e-02
1.343264646e-02
8.641373950e-03
4.711445054e-03
1.759058275e-03
2.575711389e-05
3.648031486e-13
3.394790874e-15
6.063170314e-17
9.902269367e-19
7.627269843e-21
1.188416499e-23
5.716920710e-27
5.358985704e-02
5.140785541e-02
4.753139241e-02
4.241649619e-02
3.652096988e-02
3.027899760e-02
2.406479690e-02
1.817615064e-02
1.283649876e-02
8.208795546e-03
4.417596749e-03
1.584123281e-03
9.759746640e-07
2.739683487e-13
2.829636097e-15
5.276553540e-17
8.808405516e-19
6.869060344e-21
1.094436945e-23
5.540550289e-27
5.143494100e-02
4.935115047e-02
4.564524014e-02
4.074766497e-02
3.509179633e-02
2.909130287e-02
2.310579800e-02
1.742446386e-02
1.226693819e-02
7.795878845e-03
4.138053194e-03
1.419530957e-03
2.561402626e-09
2.085358697e-13
2.371598197e-15
4.608106959e-17
7.857340650e-19
6.203577843e-21
1.011212073e-23
5.383877035e-27
4.939397999e-02
4.740190635e-02
4.385551450e-02
3.916167812e-02
3.373122152e-02
2.795871544e-02
2.218999621e-02
1.670593126e-02
1.172237364e-02
7.401475224e-03
3.871993380e-03
1.264737621e-03
4.429746686e-10
1.606495742e-13
1.997860020e-15
4.037458404e-17
7.027145474e-19
5.616978461e-21
9.371037755e-24
5.243817294e-27
4.745852867e-02
4.555224366e-02
4.215527740e-02
3.765277752e-02
3.243465292e-02
2.687768288e-02
2.131470082e-02
1.601857524e-02
1.120134818e-02
7.024530202e-03
3.618670977e-03
1.119259518e-03
1.533181479e-10
1.251053890e-13
1.691000665e-15
3.548174210e-17
6.299721428e-19
5.097841313e-21
8.707650618e-24
5.117768071e-27
4.562098928e-02
4.379507432e-02
4.053829306e-02
3.621570729e-02
3.119788037e-02
2.584495988e-02
2.047746139e-02
1.536055793e-02
1.070251348e-02
6.664063233e-03
3.377397369e-03
9.826610662e-04
6.951135332e-11
9.838410900e-14
1.437587786e-15
3.126959115e-17
5.660117633e-19
4.636669443e-21
8.110896228e-24
5.003501337e-27
4.387443994e-02
4.212391436e-02
3.899886588e-02
3.484572789e-02
3.001709953e-02
2.485756582e-02
1.967601505e-02
1.473020475e-02
1.022463844e-02
6.319187923e-03
3.147538403e-03
8.545623763e-04
3.647461512e-11
7.806248983e-14
1.227168663e-15
2.762981455e-17
5.095871932e-19
4.225558364e-21
7.571542768e-24
4.899189530e-27
4.221257986e-02
4.053290779e-02
3.753180193e-02
3.353847410e-02
2.888879783e-02
2.391277147e-02
1.890829224e-02
1.412595407e-02
9.766574179e-03
5.989069569e-03
2.928515201e-03
7.346320223e-04
2.099873637e-11
6.244435922e-14
1.051560092e-15
2.447339256e-17
4.596601062e-19
3.857885872e-21
7.081963800e-24
4.803249572e-27
4.062969949e-02
3.901668321e-02
3.613237320e-02
3.228995918e-02
2.780975020e-02
2.300806917e-02
1.817236347e-02
1.354637583e-02
9.327268781e-03
5.672950200e-03
2.719791645e-03
6.226011816e-04
1.289632521e-11
5.032539872e-14
9.043043532e-16
2.172699958e-17
4.153532679e-19
3.528039978e-21
6.635712062e-24
4.714310257e-27
3.912055848e-02
3.757035153e-02
3.479624809e-02
3.109652664e-02
2.677700202e-02
2.214113413e-02
1.746646373e-02
1.299013971e-02
8.905740523e-03
5.370119658e-03
2.520873502e-03
5.182672775e-04
8.309892638e-12
4.083822900e-14
7.802796540e-16
1.932998657e-17
3.759290160e-19
3.231280733e-21
6.227458256e-24
4.631251972e-27
3.768040196e-02
3.618944938e-02
3.351945748e-02
2.995485248e-02
2.578784475e-02
2.130983529e-02
1.678895715e-02
1.245602011e-02
8.501081018e-03
5.079922704e-03
2.331302452e-03
4.215116857e-04
5.558102327e-12
3.335077999e-14
6.753774238e-16
1.723173100e-17
3.407613819e-19
2.963587433e-21
5.852612059e-24
4.553020225e-27
3.630483695e-02
3.486987275e-02
3.229837312e-02
2.886182784e-02
2.483975761e-02
2.051218635e-02
1.613832318e-02
1.194286672e-02
8.112452877e-03
4.801751975e-03
2.150658934e-03
3.323311456e-04
3.830708017e-12
2.739690101e-14
5.863026880e-16
1.538995260e-17
3.093155723e-19
2.721500533e-21
5.507274096e-24
4.478780847e-27
3.498986396e-02
3.360785664e-02
3.112964740e-02
2.781461991e-02
2.393042191e-02
1.974636413e-02
1.551315761e-02
1.144962552e-02
7.739063849e-03
4.535039069e-03
1.978551370e-03
2.508931865e-04
2.706296794e-12
2.262923451e-14
5.103862555e-16
1.376903321e-17
2.811364221e-19
2.502064402e-21
5.188156550e-24
4.407821602e-27
3.373180306e-02
3.239994084e-02
3.001018170e-02
2.681061383e-02
2.305771037e-02
1.901067093e-02
1.491214431e-02
1.097530109e-02
7.380185493e-03
4.279258303e-03
1.814618892e-03
1.776321685e-04
1.952179032e-12
1.878680693e-14
4.454592065e-16
1.233911924e-17
2.558322938e-19
2.302745514e-21
4.892409766e-24
4.339496038e-27
3.252726145e-02
3.124294068e-02
2.893715071e-02
2.584737129e-02
2.221961298e-02
1.830353359e-02
1.433406545e-02
1.051897837e-02
7.035141429e-03
4.033920189e-03
1.658528941e-03
1.134366403e-04
1.433556440e-12
1.567117192e-14
3.897470252e-16
1.107470473e-17
2.330665891e-19
2.121326067e-21
4.617608881e-24
4.273257210e-27
3.137309663e-02
3.013391811e-02
2.790792790e-02
2.492266017e-02
2.141430542e-02
1.762347180e-02
1.377778055e-02
1.007978958e-02
6.703288362e-03
3.798564903e-03
1.509974344e-03
6.001146283e-05
1.069159714e-12
1.313059354e-14
3.417935653e-16
9.954252996e-18
2.125458499e-19
1.955904924e-21
4.361664860e-24
4.208618447e-27
3.026644369e-02
2.907015193e-02
2.692006607e-02
2.403440555e-02
2.064006805e-02
1.696912866e-02
1.324223875e-02
9.656940183e-03
6.384034527e-03
3.572769530e-03
1.368670485e-03
2.058293880e-05
8.083176005e-13
1.104785915e-14
3.003965800e-16
8.959327315e-18
1.940188960e-19
1.804801021e-21
4.122736589e-24
4.145177938e-27
2.920462472e-02
2.804912521e-02
2.597132185e-02
2.318065729e-02
1.989530265e-02
1.633923499e-02
1.272644556e-02
9.249672616e-03
6.076826215e-03
3.356129413e-03
1.234356214e-03
1.088697997e-06
6.185440343e-13
9.332014394e-15
2.645607643e-16
8.074196938e-18
1.772643145e-19
1.666556272e-21
3.899200720e-24
4.082567056e-27
2.818516701e-02
2.706852021e-02
2.505960862e-02
2.235963134e-02
1.917852290e-02
1.573258897e-02
1.222947050e-02
8.857286150e-03
5.781134943e-03
3.148273502e-03
1.106800698e-03
4.027739729e-09
4.784688957e-13
7.911770846e-15
2.334567746e-16
7.285264602e-18
1.620910908e-19
1.539899007e-21
3.689692483e-24
4.020476503e-27
2.720578817e-02
2.612615487e-02
2.418297533e-02
2.156965496e-02
1.848834576e-02
1.514808225e-02
1.175044846e-02
8.479116209e-03
5.496479388e-03
2.948851425e-03
9.857841562e-04
6.767443876e-10
3.737415972e-13
6.731047093e-15
2.063924465e-16
6.580866815e-18
1.483299714e-19
1.423688480e-21
3.492988992e-24
3.958695703e-27
2.626435025e-02
2.522002839e-02
2.333961674e-02
2.080916582e-02
1.782347996e-02
1.458468331e-02
1.128856623e-02
8.114545748e-03
5.222394341e-03
2.757535538e-03
8.711213303e-04
2.349677512e-10
2.945290122e-13
5.745355804e-15
1.827867834e-16
5.950958298e-18
1.358333928e-19
1.316927117e-21
3.308018623e-24
3.896975203e-27
2.535887873e-02
2.434827552e-02
2.252784407e-02
2.007670669e-02
1.718270485e-02
1.404140298e-02
1.084305907e-02
7.762990805e-03
4.958448458e-03
2.574019821e-03
7.626477100e-04
1.075523163e-10
2.339838310e-13
4.919252609e-15
1.621520535e-16
5.386770645e-18
1.244717209e-19
1.218750647e-21
3.133824289e-24
3.835178407e-27
2.448752435e-02
2.350914694e-02
2.174608835e-02
1.937092455e-02
1.656489631e-02
1.351733223e-02
1.041321235e-02
7.423908135e-03
4.704243075e-03
2.398015668e-03
6.602313156e-04
5.706278249e-11
1.872640651e-13
4.224314887e-15
1.440752184e-16
4.880716659e-18
1.141298026e-19
1.128354729e-21
2.969592248e-24
3.773181472e-27
2.364858195e-02
2.270101647e-02
2.099288303e-02
1.869053733e-02
1.596898940e-02
1.301161359e-02
9.998346375e-03
7.096779946e-03
4.459389482e-03
2.229251722e-03
5.637749206e-04
3.321567485e-11
1.508956761e-13
3.637673702e-15
1.282070315e-16
4.426183699e-18
1.047058699e-19
1.045052193e-21
2.814578300e-24
3.710875895e-27
2.284043268e-02
2.192236620e-02
2.026684539e-02
1.803435699e-02
1.539397754e-02
1.252343454e-02
9.597830171e-03
6.781120159e-03
4.223530759e-03
2.067478038e-03
4.732259957e-04
2.061435377e-11
1.223575468e-13
3.140775487e-15
1.142502551e-16
4.017373852e-18
9.611032541e-20
9.682168650e-22
2.668091151e-24
3.648175832e-27
2.206157758e-02
2.117177361e-02
1.956669712e-02
1.740127259e-02
1.483893652e-02
1.205204213e-02
9.211063768e-03
6.476471968e-03
3.996327502e-03
1.912456090e-03
3.885965820e-04
1.341293835e-11
9.979759738e-14
2.718579464e-15
1.019523449e-16
3.649263745e-18
8.826272564e-20
8.972875846e-22
2.529556218e-24
3.584991323e-27
2.131062783e-02
2.044790499e-02
1.889123419e-02
1.679022407e-02
1.430298461e-02
1.159671469e-02
8.837487003e-03
6.182404883e-03
3.777460200e-03
1.763963554e-03
3.099849420e-04
9.051587381e-12
8.183998504e-14
2.358756496e-15
9.109680797e-17
3.317382363e-18
8.109194329e-20
8.317646293e-22
2.398413552e-24
3.521276783e-27
2.058626048e-02
1.974952676e-02
1.823932097e-02
1.620022864e-02
1.378528524e-02
1.115678301e-02
8.476563624e-03
5.898509591e-03
3.566629284e-03
1.621792732e-03
2.376204268e-04
6.289179951e-12
6.745465999e-14
2.051213903e-15
8.149841478e-17
3.017852106e-18
7.453400351e-20
7.711879028e-22
2.274189288e-24
3.456992266e-27
1.988724120e-02
1.907545122e-02
1.760989125e-02
1.563036255e-02
1.328506090e-02
1.073161084e-02
8.127792075e-03
5.624401092e-03
3.363549047e-03
1.485750166e-03
1.719417516e-04
4.475750349e-12
5.586219944e-14
1.787641357e-15
7.299781583e-17
2.747227445e-18
6.853232124e-20
7.151522001e-22
2.156429069e-24
3.392126405e-27
1.921242170e-02
1.842459723e-02
1.700195165e-02
1.507975080e-02
1.280157802e-02
1.032059360e-02
7.790699174e-03
5.359716404e-03
3.167947389e-03
1.355655320e-03
1.137302392e-04
3.249842091e-12
4.646791422e-14
1.561152481e-15
6.545787519e-17
2.502465418e-18
6.303534442e-20
6.632865751e-22
2.044735856e-24
3.326687140e-27
1.856070554e-02
1.779591933e-02
1.641456392e-02
1.454757199e-02
1.233414341e-02
9.923168978e-03
7.464833464e-03
5.104110646e-03
2.979573450e-03
1.231341922e-03
6.436451136e-05
2.400548492e-12
3.881533411e-14
1.366055895e-15
5.876024864e-17
2.280897930e-18
5.799758830e-20
6.152615884e-22
1.938755727e-24
3.260723664e-27
1.793107386e-02
1.718845378e-02
1.584683567e-02
1.403304555e-02
1.188209676e-02
9.538799408e-03
7.149769643e-03
4.857258106e-03
2.798187721e-03
1.112658107e-03
2.628084773e-05
1.799753105e-12
3.255090972e-14
1.197596619e-15
5.280253477e-17
2.080134768e-18
5.337769148e-20
5.707666354e-22
1.838153170e-24
3.194259335e-27
1.732257348e-02
1.660127234e-02
1.529794167e-02
1.353544630e-02
1.144481626e-02
9.166975593e-03
6.845108957e-03
4.618846591e-03
2.623560112e-03
9.994650740e-04
3.761291047e-06
1.367015768e-12
2.739916638e-14
1.051799480e-15
4.749561871e-17
1.898068556e-18
4.913865583e-20
5.295287370e-22
1.742626549e-24
3.127341680e-27
1.673428617e-02
1.603353084e-02
1.476708528e-02
1.305408150e-02
1.102172843e-02
8.807219991e-03
6.550466945e-03
4.388586896e-03
2.455476855e-03
8.916393183e-04
1.228853924e-08
1.050383819e-12
2.314382306e-14
9.253502938e-16
4.276249251e-17
1.732830221e-18
4.524702905e-20
4.912981026e-22
1.651904646e-24
3.060039234e-27
1.616535613e-02