/*--------------------------------*- C++ -*----------------------------------*\
| =========                 |                                                 |
| \\      /  F ield         | OpenFOAM: The Open Source CFD Toolbox           |
|  \\    /   O peration     | Version:  5.x                                   |
|   \\  /    A nd           | Web:      www.OpenFOAM.org                      |
|    \\/     M anipulation  |                                                 |
\*---------------------------------------------------------------------------*/
FoamFile
{
    version     2.0;
    format      ascii;
    class       volScalarField;
    location    "3.5";
    object       C2H5;
}
// * * * * * * * * * * * * * * * * * * * * * * * * * * * * * * * * * * * * * //

dimensions      [0 0 0 0 0 0 0];

internalField   nonuniform List<scalar>
51080
(
0.000000000e+00
0.000000000e+00
0.000000000e+00
0.000000000e+00
0.000000000e+00
0.000000000e+00
0.000000000e+00
0.000000000e+00
0.000000000e+00
0.000000000e+00
2.575700537e-10
3.337821282e-10
4.353438236e-10
6.025320037e-10
9.108137085e-10
1.508696109e-09
2.784261987e-09
5.957443184e-09
1.619919366e-08
6.280452827e-08
0.000000000e+00
0.000000000e+00
0.000000000e+00
0.000000000e+00
0.000000000e+00
0.000000000e+00
0.000000000e+00
0.000000000e+00
2.208016061e-10
2.744043889e-10
3.567284373e-10
4.674337489e-10
6.532580082e-10
1.005378193e-09
1.688289568e-09
3.152260458e-09
6.775000665e-09
1.755813205e-08
5.609875381e-08
1.495151954e-07
0.000000000e+00
0.000000000e+00
0.000000000e+00
0.000000000e+00
0.000000000e+00
0.000000000e+00
0.000000000e+00
2.343556947e-10
2.908121224e-10
3.787346957e-10
4.971729548e-10
6.943602561e-10
1.066209305e-09
1.774118937e-09
3.250723305e-09
6.762034487e-09
1.648255836e-08
4.715350622e-08
1.233180828e-07
1.854743868e-07
0.000000000e+00
0.000000000e+00
0.000000000e+00
0.000000000e+00
0.000000000e+00
2.100727320e-10
2.485737658e-10
3.053673387e-10
3.907110291e-10
5.211384175e-10
7.223440745e-10
1.100442413e-09
1.803624180e-09
3.213545715e-09
6.440128456e-09
1.478800379e-08
3.908741009e-08
1.010354515e-07
1.730767262e-07
1.777275909e-07
0.000000000e+00
0.000000000e+00
0.000000000e+00
0.000000000e+00
2.266520458e-10
2.659184745e-10
3.243371121e-10
4.130059480e-10
5.519278028e-10
7.443454767e-10
1.116753565e-09
1.792686356e-09
3.100040054e-09
5.978355355e-09
1.299545913e-08
3.210392740e-08
8.147164226e-08
1.546067811e-07
1.851771485e-07
1.477873408e-07
0.000000000e+00
2.062583900e-10
2.220142776e-10
2.475752338e-10
2.865838279e-10
3.453608008e-10
4.348762208e-10
5.747537525e-10
7.661782241e-10
1.121042291e-09
1.755076268e-09
2.942459575e-09
5.461664879e-09
1.128223801e-08
2.621578247e-08
6.465247186e-08
1.327949398e-07
1.816214177e-07
1.704680830e-07
1.099756132e-07
2.416685706e-10
2.527837925e-10
2.753904907e-10
3.124620886e-10
3.698887686e-10
4.581075893e-10
5.957299088e-10
7.816188284e-10
1.115863631e-09
1.699631164e-09
2.761436317e-09
4.934456237e-09
9.713418316e-09
2.131248520e-08
5.060753289e-08
1.096770453e-07
1.695932201e-07
1.820178837e-07
1.421661716e-07
7.229631351e-08
2.989430848e-10
3.147399581e-10
3.470918452e-10
4.007398522e-10
4.851354275e-10
6.173811057e-10
7.938196293e-10
1.102319905e-09
1.633128617e-09
2.571474812e-09
4.424228509e-09
8.315167807e-09
1.727416716e-08
3.921710685e-08
8.723774251e-08
1.508508050e-07
1.835614420e-07
1.653689849e-07
1.091825003e-07
3.902181422e-08
3.743956774e-10
3.967211033e-10
4.427674578e-10
5.199874987e-10
6.433350618e-10
8.057381666e-10
1.081679406e-09
1.553050603e-09
2.395338197e-09
3.955360824e-09
7.099744626e-09
1.398818369e-08
3.021402109e-08
6.718460665e-08
1.274766104e-07
1.756879930e-07
1.792933035e-07
1.401656324e-07
7.669548039e-08
1.271368076e-08
4.730185469e-10
5.042720752e-10
5.692405165e-10
6.794696189e-10
8.239957634e-10
1.066057565e-09
1.483862277e-09
2.212277114e-09
3.526708727e-09
6.059019755e-09
1.134258718e-08
2.324622525e-08
5.055094081e-08
1.022425988e-07
1.592428604e-07
1.834157396e-07
1.637358459e-07
1.120566479e-07
4.752232829e-08
3.034432775e-15
6.009750080e-10
6.435531275e-10
7.335942348e-10
8.545264810e-10
1.062399003e-09
1.428278811e-09
2.052150824e-09
3.146465568e-09
5.179662275e-09
9.230647657e-09
1.793663732e-08
3.755862808e-08
7.820947871e-08
1.360286017e-07
1.773588384e-07
1.784534985e-07
1.424141139e-07
8.440865205e-08
2.321693675e-08
1.022660273e-17
7.737182507e-10
8.199885028e-10
9.057172848e-10
1.078963822e-09
1.398696319e-09
1.925790698e-09
2.830390267e-09
4.456711773e-09
7.564552541e-09
1.393714267e-08
2.783215601e-08
5.775320952e-08
1.091994882e-07
1.614791678e-07
1.829916684e-07
1.655604432e-07
1.190206314e-07
5.909070099e-08
5.062437406e-09
5.394268730e-19
9.214201914e-10
9.853728737e-10
1.131775440e-09
1.398096067e-09
1.840459214e-09
2.584400960e-09
3.883503458e-09
6.272898130e-09
1.095614390e-08
2.075331909e-08
4.186035864e-08
8.278162473e-08
1.375893748e-07
1.765134336e-07
1.794453519e-07
1.484072677e-07
9.581980062e-08
3.708578419e-08
5.119619788e-16
5.521834237e-20
1.134294249e-09
1.234522024e-09
1.444958163e-09
1.806275876e-09
2.413056557e-09
3.449870478e-09
5.293971859e-09
8.759111610e-09
1.569207988e-08
3.027474579e-08
6.018522067e-08
1.093925366e-07
1.593402609e-07
1.823499825e-07
1.699386707e-07
1.294987449e-07
7.410828203e-08
1.892983836e-08
1.108643472e-17
7.880904730e-21
1.435960635e-09
1.566223874e-09
1.842252784e-09
2.325739970e-09
3.148894734e-09
4.577211224e-09
7.163121773e-09
1.211441082e-08
2.214751845e-08
4.291334881e-08
8.175181772e-08
1.337695981e-07
1.734012741e-07
1.812452625e-07
1.569724523e-07
1.104293846e-07
5.457159916e-08
5.158026595e-09
1.031915024e-18
1.372692546e-21
1.808670404e-09
1.978215806e-09
2.340112519e-09
2.981311467e-09
4.086551050e-09
6.032173439e-09
9.611868435e-09
1.656582993e-08
3.066943164e-08
5.862068888e-08
1.043732153e-07
1.533982373e-07
1.805714614e-07
1.753721082e-07
1.423118852e-07
9.215622673e-08
3.753229785e-08
3.139061545e-15
1.609540777e-19
2.722954667e-22
2.267742684e-09
2.487448613e-09
2.959109828e-09
3.802174173e-09
5.271504310e-09
7.892062850e-09
1.277905354e-08
2.234825160e-08
4.146400583e-08
7.666588564e-08
1.256393854e-07
1.674847321e-07
1.822956288e-07
1.664723965e-07
1.271340646e-07
7.521337566e-08
2.311962032e-08
5.120891287e-17
3.354876014e-20
5.912497859e-23
2.830658311e-09
3.113490451e-09
3.723641934e-09
4.822567753e-09
6.756805089e-09
1.024566450e-08
1.681543450e-08
2.966637382e-08
5.447259326e-08
9.571952775e-08
1.438291275e-07
1.763767842e-07
1.800262225e-07
1.558311784e-07
1.121881256e-07
5.986503933e-08
1.140414321e-08
5.710891987e-18
8.470761063e-21
1.373113516e-23
3.517562581e-09
3.879021633e-09
4.662190447e-09
6.082273288e-09
8.603369160e-09
1.319158018e-08
2.187128735e-08
3.863940719e-08
6.927885417e-08
1.142762071e-07
1.581851736e-07
1.809140281e-07
1.749885820e-07
1.443515961e-07
9.792625407e-08
4.620972326e-08
2.680611364e-09
1.105034909e-18
2.456993478e-21
3.366418621e-24
4.351709335e-09
4.810266052e-09
5.807678259e-09
7.626924680e-09
1.087960200e-08
1.683414026e-08
2.807636333e-08
4.924421506e-08
8.513254545e-08
1.311094433e-07
1.686913647e-07
1.820315234e-07
1.681362503e-07
1.326457924e-07
8.460091095e-08
3.424955686e-08
4.449497332e-15
2.878003341e-19
7.929473680e-22
8.655488425e-25
5.359846247e-09
5.937366043e-09
7.197785062e-09
9.508041293e-09
1.366003963e-08
2.127618824e-08
3.551284746e-08
6.127611972e-08
1.011224176e-07
1.454908708e-07
1.757374101e-07
1.805792735e-07
1.601783753e-07
1.211142905e-07
7.233368230e-08
2.393709534e-08
1.394887497e-16
9.112987338e-20
2.789689476e-22
2.328817027e-25
6.572555513e-09
7.294670561e-09
8.875058701e-09
1.178254032e-08
1.702254768e-08
2.660809332e-08
4.418658650e-08
7.433870263e-08
1.163942930e-07
1.571602985e-07
1.798678992e-07
1.772630827e-07
1.516266460e-07
1.100079608e-07
6.116252437e-08
1.520995438e-08
2.189587955e-17
3.325719773e-20
1.055444892e-22
6.565209004e-26
8.024458954e-09
8.920859605e-09
1.088675641e-08
1.451151928e-08
2.104370059e-08
3.289348261e-08
5.400980071e-08
8.790553988e-08
1.303077789e-07
1.661816953e-07
1.816399973e-07
1.726409054e-07
1.428412466e-07
9.947422587e-08
5.107403032e-08
8.032209067e-09
5.577477373e-18
1.354402779e-20
4.254552379e-23
1.947752162e-26
9.754266076e-09
1.085882997e-08
1.328417535e-08
1.775806381e-08
2.579207892e-08
4.015347098e-08
6.478458016e-08
1.014152024e-07
1.424855968e-07
1.727977851e-07
1.815574110e-07
1.671408892e-07
1.340697882e-07
8.958995793e-08
4.202479543e-08
2.524395145e-09
1.843494129e-18
6.025535546e-21
1.815468769e-23
6.124327134e-27
1.180450631e-08
1.315515493e-08
1.612133646e-08
2.158373536e-08
3.131967443e-08
4.835563078e-08
7.621846572e-08
1.143647381e-07
1.527811915e-07
1.773247334e-07
1.800476974e-07
1.610849140e-07
1.254775661e-07
8.038519812e-08
3.395574617e-08
1.932748835e-13
7.228832302e-19
2.885060084e-21
8.161849490e-24
2.058383814e-27
1.422087930e-08
1.585904365e-08
1.945282535e-08
2.604375586e-08
3.765216009e-08
5.740479118e-08
8.796205106e-08
1.263698371e-07
1.612132069e-07
1.800897446e-07
1.774606902e-07
1.547110978e-07
1.171707975e-07
7.185947043e-08
2.680157632e-08
9.371544360e-16
3.208762249e-19
1.470574998e-21
3.852202525e-24
7.453581468e-28
1.705102663e-08
1.902054921e-08
2.333058812e-08
3.118089848e-08
4.478046483e-08
6.713908861e-08
9.965642557e-08
1.371829610e-07
1.679008850e-07
1.813981987e-07
1.740762292e-07
1.481930776e-07
1.092136264e-07
6.399310519e-08
2.049723677e-08
1.518849326e-16
1.567034412e-19
7.913933511e-22
1.903330836e-24
2.922675286e-28
2.034263846e-08
2.268800726e-08
2.779973290e-08
3.701852466e-08
5.265679411e-08
7.734472043e-08
1.109765593e-07
1.466805446e-07
1.730142452e-07
1.815199800e-07
1.701148691e-07
1.416555758e-07
1.016408963e-07
5.675515304e-08
1.498324851e-08
4.376483883e-17
8.261373577e-20
4.467323622e-22
9.821269950e-25
1.242477092e-28
2.414070089e-08
2.690452255e-08
3.289341248e-08
4.355439630e-08
6.118594741e-08
8.777759894e-08
1.216605726e-07
1.548352930e-07
1.767411378e-07
1.806857664e-07
1.657485018e-07
1.351866055e-07
9.446700737e-08
5.010854248e-08
1.021183268e-08
1.652041361e-17
4.638807626e-20
2.631362707e-22
5.281409183e-25
5.713341411e-29
2.848405303e-08
3.170372052e-08
3.862724670e-08
5.075815904e-08
7.023068650e-08
9.818896498e-08
1.315213155e-07
1.616863708e-07
1.792673903e-07
1.790887652e-07
1.611099690e-07
1.288468145e-07
8.769257629e-08
4.401363166e-08
6.158960932e-09
7.354690800e-18
2.746557453e-20
1.610325782e-22
2.953998217e-25
2.828604704e-29
3.340111874e-08
3.710495188e-08
4.499515485e-08
5.856351853e-08
7.962188558e-08
1.083489929e-07
1.404437608e-07
1.673137095e-07
1.807661970e-07
1.768887077e-07
1.563013205e-07
1.226766620e-07
8.130917151e-08
3.843054187e-08
2.859669194e-09
3.671221669e-18
1.701564447e-20
1.020145416e-22
1.715343732e-25
1.499180188e-29
3.890551959e-08
4.310891865e-08
5.196679317e-08
6.687013738e-08
8.917287222e-08
1.180635791e-07
1.483741359e-07
1.718189144e-07
1.813933236e-07
1.742164064e-07
1.514002730e-07
1.167017889e-07
7.530257524e-08
3.332069080e-08
5.479293259e-10
1.996082414e-18
1.096299095e-20
6.669039944e-23
1.032256489e-25
8.455174787e-30
4.499270139e-08
4.969626443e-08
5.948112549e-08
7.554961660e-08
9.869572276e-08
1.271830297e-07
1.553056403e-07
1.753120255e-07
1.812856759e-07
1.711783622e-07
1.464656529e-07
1.109370246e-07
6.965513327e-08
2.864761500e-08
3.432084301e-14
1.160396510e-18
7.309311594e-21
4.486632741e-23
6.426079443e-26
5.044721277e-30
5.163780773e-08
5.682096267e-08
6.744911974e-08
8.445443231e-08
1.080155317e-07
1.356029778e-07
1.612649747e-07
1.779029530e-07
1.805619144e-07
1.678609987e-07
1.415416152e-07
1.053894680e-07
6.434742515e-08
2.437762581e-08
1.951840586e-15
7.120939453e-19
5.022421431e-21
3.098653571e-23
4.130991126e-26
3.166893799e-30
5.878996074e-08
6.441080881e-08
7.575834518e-08
9.342920252e-08
1.169812631e-07
1.432603571e-07
1.663008087e-07
1.796966531e-07
1.793237590e-07
1.643341524e-07
1.366609336e-07
1.000606829e-07
5.935934195e-08
2.048020003e-08
4.834948422e-16
4.570116819e-19
3.544442502e-21
2.192181201e-23
2.737531994e-26
2.081582722e-30
6.637424481e-08
7.237069835e-08
8.428011612e-08
1.023219653e-07
1.254717064e-07
1.501267734e-07
1.704745048e-07
1.807903608e-07
1.776579736e-07
1.606542133e-07
1.318476219e-07
9.494836938e-08
5.467086707e-08
1.692818492e-08
1.806479040e-16
3.045903164e-19
2.561632177e-21
1.585536790e-23
1.866857935e-26
1.426331817e-30
7.429493610e-08
8.058789878e-08
9.287838519e-08
1.109937245e-07
1.333971222e-07
1.562006080e-07
1.738537797e-07
1.812723866e-07
1.756381497e-07
1.568665496e-07
1.271189243e-07
9.004761633e-08
5.026257734e-08
1.369822298e-08
8.285582763e-17
2.096578551e-19
1.891160737e-21
1.170252427e-23
1.307731891e-26
1.014522454e-30
8.244106304e-08
8.893920688e-08
1.014188863e-07
1.193253638e-07
1.406974182e-07
1.615002688e-07
1.765082008e-07
1.812219027e-07
1.733266448e-07
1.530077208e-07
1.224869031e-07
8.535177086e-08
4.611601674e-08
1.077130092e-08
4.313212545e-17
1.483895567e-19
1.423119836e-21
8.799866735e-24
9.393775844e-27
7.463520692e-31
9.069322979e-08
9.729902273e-08
1.097771132e-07
1.272210367e-07
1.473386125e-07
1.660575708e-07
1.785059717e-07
1.807093030e-07
1.707761424e-07
1.491070093e-07
1.179597153e-07
8.085315163e-08
4.221374443e-08
8.133932960e-09
2.450880804e-17
1.076063860e-19
1.089516285e-21
6.731572935e-24
6.908004475e-27
5.661074401e-31
9.893113717e-08
1.055469330e-07
1.178441482e-07
1.346090554e-07
1.533080856e-07
1.699133075e-07
1.799123937e-07
1.797966832e-07
1.680311129e-07
1.451879006e-07
1.135424073e-07
7.654343630e-08
3.853954385e-08
5.780551518e-09
1.486222638e-17
7.971269180e-20
8.471984536e-22
5.231233664e-24
5.192208866e-27
4.414143990e-31
1.070406865e-07
1.135738417e-07
1.255301538e-07
1.414405340e-07
1.586100389e-07
1.731131437e-07
1.807885415e-07
1.785387472e-07
1.651292107e-07
1.412691945e-07
1.092378718e-07
7.241409094e-08
3.507842571e-08
3.718886636e-09
9.480172999e-18
6.017181024e-20
6.681253717e-22
4.124688723e-24
3.982623118e-27
3.529172290e-31
1.149191330e-07
1.212862435e-07
1.327656264e-07
1.476865732e-07
1.632611513e-07
1.757049573e-07
1.811908788e-07
1.769833544e-07
1.621021270e-07
1.373658412e-07
1.050471774e-07
6.845656097e-08
3.181661459e-08
1.982925972e-09
6.298211667e-18
4.618648429e-20
5.336747286e-22
3.295723987e-24
3.112262053e-27
2.885152335e-31
1.224790668e-07
1.286084240e-07
1.395005272e-07
1.533351791e-07
1.672869998e-07
1.777369446e-07
1.811711576e-07
1.751724659e-07
1.589767097e-07
1.334897104e-07
1.009701701e-07
6.466248406e-08
2.874157620e-08
6.670504750e-10
4.327050739e-18
3.598435917e-20
4.312577951e-22
2.665741588e-24
2.474216894e-27
2.406349893e-31
1.296499268e-07
1.354827057e-07
1.457028827e-07
1.583877644e-07
1.707189317e-07
1.792561975e-07
1.807763298e-07
1.731427788e-07
1.557756443e-07
1.296501849e-07
9.700580278e-08
6.102376515e-08
2.584191134e-08
1.688050371e-11
3.057804298e-18
2.841294291e-20
3.522026113e-22
2.180581747e-24
1.998488361e-27
2.044184854e-31
1.363783039e-07
1.418686487e-07
1.513558511e-07
1.628561304e-07
1.735918971e-07
1.803078298e-07
1.800489231e-07
1.709263371e-07
1.525181108e-07
1.258546798e-07
9.315223664e-08
5.753266210e-08
2.310736193e-08
1.833401783e-14
2.213473526e-18
2.270583303e-20
2.904279402e-22
1.802272421e-24
1.637963153e-27
1.765399153e-31
1.426269559e-07
1.477411067e-07
1.564553532e-07
1.667595558e-07
1.759425154e-07
1.809345713e-07
1.790272710e-07
1.685512122e-07
1.492203523e-07
1.221088289e-07
8.940726402e-08
5.418187608e-08
2.052878058e-08
3.236754106e-15
1.635911860e-18
1.834290767e-20
2.416071198e-22
1.503823063e-24
1.360546587e-27
1.547375198e-31
1.483728772e-07
1.530881010e-07
1.610072758e-07
1.701227377e-07
1.778079939e-07
1.811763774e-07
1.777458101e-07
1.660419052e-07
1.458961473e-07
1.184171102e-07
8.576830099e-08
5.096445050e-08
1.809799632e-08
1.126440209e-15
1.231139530e-18
1.496436923e-20
2.026172729e-22
1.265797066e-24
1.144010556e-27
1.374430635e-31
1.536054459e-07
1.579083536e-07
1.650252834e-07
1.729737085e-07
1.792249746e-07
1.810703234e-07
1.762354260e-07
1.634198346e-07
1.425571148e-07
1.147827951e-07
8.223257852e-08
4.787389904e-08
1.580798750e-08
5.126739109e-16
9.413953253e-19
1.231723655e-20
1.711767404e-22
1.074031612e-24
9.727622165e-28
1.235528352e-31
1.583240516e-07
1.622091209e-07
1.685283776e-07
1.753425338e-07
1.802290346e-07
1.806506276e-07
1.745238357e-07
1.607037639e-07
1.392131500e-07
1.112083478e-07
7.879718856e-08
4.490418917e-08
1.365279074e-08
2.703106790e-16
7.300626815e-19
1.022078623e-20
1.455952464e-22
9.180761658e-25
8.356657975e-28
1.122621945e-31
1.625360248e-07
1.660041118e-07
1.715396949e-07
1.772600996e-07
1.808542061e-07
1.799487981e-07
1.726358271e-07
1.579101675e-07
1.358725863e-07
1.076954912e-07
7.545917953e-08
4.204965035e-08
1.162766246e-08
1.566076219e-16
5.733279123e-19
8.543897527e-21
1.246030986e-22
7.900668029e-25
7.245584752e-28
1.030075181e-31
1.662547056e-07
1.693118127e-07
1.740846796e-07
1.787574640e-07
1.811327308e-07
1.789936404e-07
1.705935866e-07
1.550534143e-07
1.325425035e-07
1.042454466e-07
7.221561074e-08
3.930507482e-08
9.729150609e-09
9.694592172e-17
4.553369538e-19
7.190351321e-21
1.072426021e-22
6.841038807e-25
6.334652449e-28
9.528847172e-32
1.694980268e-07
1.721539695e-07
1.761903829e-07
1.798650213e-07
1.810948548e-07
1.778114822e-07
1.684169869e-07
1.521461225e-07
1.292288786e-07
1.008588609e-07
6.906358400e-08
3.666560693e-08
7.955594297e-09
6.305868005e-17
3.653126082e-19
6.088681261e-21
9.278416731e-23
5.957445906e-25
5.581257304e-28
8.884389629e-32
1.722869765e-07
1.745544715e-07
1.778842115e-07
1.806123233e-07
1.807689589e-07
1.764263593e-07
1.661238182e-07
1.491993778e-07
1.259367829e-07
9.753612718e-08
6.600026463e-08
3.412682174e-08
6.307556528e-09
4.263224852e-17
2.957851396e-19
5.185078352e-21
8.066109674e-23
5.215298716e-25
4.952328813e-28
8.341758871e-32
1.746445343e-07
1.765384056e-07
1.791937117e-07
1.810275610e-07
1.801813477e-07
1.748600975e-07
1.637299822e-07
1.462229069e-07
1.226704905e-07
9.427729941e-08
6.302286896e-08
3.168459848e-08
4.788948107e-09
2.973403285e-17
2.414919864e-19
4.438585334e-21
7.043251027e-23
4.587640011e-25
4.422420343e-28
7.880627535e-32
1.765949114e-07
1.781313052e-07
1.801458134e-07
1.811376463e-07
1.793564078e-07
1.731326257e-07
1.612497171e-07
1.432252342e-07
1.194335826e-07
9.108216991e-08
6.012878578e-08
2.933519186e-08
3.409007812e-09
2.127832006e-17
1.986629125e-19
3.817792771e-21
6.175145461e-23
4.053372505e-25
3.972109888e-28
7.485849478e-32
1.781626477e-07
1.793587102e-07
1.807666521e-07
1.809678635e-07
1.783167252e-07
1.712620073e-07
1.586957567e-07
1.402139140e-07
1.162290612e-07
8.795037643e-08
5.731543564e-08
2.707516083e-08
2.186151227e-09
1.556066529e-17
1.645652504e-19
3.298338323e-21
5.434337167e-23
3.595852066e-25
3.586425250e-28
7.145497797e-32
1.793724279e-07
1.802456608e-07
1.810813239e-07
1.805420223e-07
1.770830751e-07
1.692646020e-07
1.560795450e-07
1.371954580e-07
1.130594056e-07
8.488138559e-08
5.458034777e-08
2.490138538e-08
1.155904999e-09
1.159223035e-17
1.371872467e-19
2.861176503e-21
4.798950349e-23
3.201858351e-25
3.253622878e-28
6.850112828e-32
1.802484061e-07
1.808164556e-07
1.811137312e-07
1.798823634e-07
1.756746055e-07
1.671554056e-07
1.534112858e-07
1.341757059e-07
1.099267757e-07
8.187455915e-08
5.192125988e-08
2.281105529e-08
3.875170043e-10
8.775716424e-18
1.150322084e-19
2.491309696e-21
4.251349509e-23
2.860761990e-25
2.964438308e-28
6.592037333e-32
1.808140846e-07
1.810944906e-07
1.808864385e-07
1.790096039e-07
1.741088720e-07
1.649478800e-07
1.507001389e-07
1.311597209e-07
1.068328505e-07
7.892917081e-08
4.933589025e-08
2.080166288e-08
1.463248200e-11
6.737658951e-18
9.697423596e-20
2.176821007e-21
3.777327579e-23
2.564011273e-25
2.711528922e-28
6.365115333e-32
1.810920553e-07
1.811020276e-07
1.804207750e-07
1.779430047e-07
1.724020406e-07
1.626543050e-07
1.479543211e-07
1.281519857e-07
1.037790335e-07
7.604443163e-08
4.682219895e-08
1.887100528e-08
3.947037762e-14
5.237685604e-18
8.215745510e-20
1.908177793e-21
3.365272383e-23
2.304640486e-25
2.488956383e-28
6.164219969e-32
1.811039331e-07
1.808602087e-07
1.797366877e-07
1.767004351e-07
1.705689121e-07
1.602858387e-07
1.451811831e-07
1.251564045e-07
1.007664775e-07
7.321949400e-08
4.437817568e-08
1.701718360e-08
7.070369884e-15
4.117028677e-18
6.992432438e-20
1.677707642e-21
3.005700769e-23
2.076960278e-25
2.291958628e-28
5.985186078e-32
1.808702585e-07
1.803890138e-07
1.788529179e-07
1.752984038e-07
1.686230143e-07
1.578525664e-07
1.423873312e-07
1.221764276e-07
9.779610375e-08
7.045351158e-08
4.200196852e-08
1.523868103e-08
2.531214857e-15
3.268499659e-18
5.976628469e-20
1.479179025e-21
2.690777211e-23
1.876290287e-25
2.116644086e-28
5.824523682e-32
1.804103888e-07
1.797071951e-07
1.777868230e-07
1.737521973e-07
1.665768143e-07
1.553636754e-07
1.395786418e-07
1.192150478e-07
9.486857503e-08
6.774555047e-08
3.969182632e-08
1.353429417e-08
1.185331467e-15
2.618257895e-18
5.128627593e-20
1.307519351e-21
2.414020762e-23
1.698751007e-25
1.959832946e-28
5.679265732e-32
1.797426107e-07
1.788323605e-07
1.765546472e-07
1.720759202e-07
1.644416758e-07
1.528274689e-07
1.367604585e-07
1.162749413e-07
9.198448492e-08
6.509475466e-08
3.744607836e-08
1.190328503e-08
6.415507583e-16
2.114531736e-18
4.417155424e-20
1.158570520e-21
2.170024529e-23
1.541122074e-25
1.818887481e-28
5.546990837e-32
1.788840536e-07
1.777809638e-07
1.751715065e-07
1.702826204e-07
1.622280219e-07
1.502515052e-07
1.339375251e-07
1.133583619e-07
8.914419969e-08
6.250017412e-08
3.526319956e-08
1.034536726e-08
3.804803552e-16
1.720438202e-18
3.817442763e-20
1.028896115e-21
1.954279316e-23
1.400712669e-25
1.691638109e-28
5.425614596e-32
1.778507853e-07
1.765683287e-07
1.736513300e-07
1.683842305e-07
1.599453368e-07
1.476426218e-07
1.311140393e-07
1.104673605e-07
8.634798680e-08
5.996094943e-08
3.314176103e-08
8.860953193e-09
2.404258970e-16
1.409338227e-18
3.309722403e-20
9.156493322e-22
1.762972566e-23
1.275250193e-25
1.576261014e-28
5.313341764e-32
1.766577754e-07
1.752087989e-07
1.720071215e-07
1.663918409e-07
1.576023647e-07
1.450070259e-07
1.282938659e-07
1.076036452e-07
8.359602016e-08
5.747616558e-08
3.108043500e-08
7.451290689e-09
1.592191992e-16
1.161721949e-18
2.878147807e-20
8.164634939e-22
1.592896681e-23
1.162819826e-25
1.471252315e-28
5.208711912e-32
1.753190194e-07
1.737156247e-07
1.702508416e-07
1.643156158e-07
1.552070512e-07
1.423503580e-07
1.254803955e-07
1.047687734e-07
8.088833427e-08
5.504497395e-08
2.907798472e-08
6.118821685e-09
1.093326041e-16
9.631392988e-19
2.509871095e-20
7.293531959e-22
1.441327436e-23
1.061800669e-25
1.375324383e-28
5.110359447e-32
1.738475283e-07
1.721011634e-07
1.683935815e-07
1.621648641e-07
1.527667146e-07
1.396776989e-07
1.226766983e-07
1.019640122e-07
7.822498298e-08
5.266650812e-08
2.713330234e-08
4.867727427e-09
7.728417995e-17
8.027628777e-19
2.194483823e-20
6.526520844e-22
1.305937348e-23
9.708033865e-26
1.287387747e-28
5.017207143e-32
1.722553843e-07
1.703768901e-07
1.664456359e-07
1.599482528e-07
1.502879904e-07
1.369937097e-07
1.198855071e-07
9.919053178e-08
7.560580947e-08
5.033993151e-08
2.524536255e-08
3.704901598e-09
5.594553516e-17
6.723985221e-19
1.923472376e-20
5.849497553e-22
1.184743591e-23
8.886432143e-26
1.206525900e-28
4.928338939e-32
1.705538917e-07
1.685533942e-07
1.644164247e-07
1.576736697e-07
1.477770023e-07
1.343025822e-07
1.171092504e-07
9.644924088e-08
7.303072657e-08
4.806444246e-08
2.341324479e-08
2.641545653e-09
4.131436208e-17
5.657971597e-19
1.689851719e-20
5.250590621e-22
1.076040199e-23
8.143063470e-26
1.131948434e-28
4.842927335e-32
1.687534307e-07
1.666405228e-07
1.623147328e-07
1.553483777e-07
1.452392328e-07
1.316081395e-07
1.143501079e-07
9.374102347e-08
7.049956025e-08
4.583928089e-08
2.163617157e-08
1.696189572e-09
3.103283208e-17
4.781362080e-19
1.487854995e-20
4.719611771e-22
9.783603447e-24
7.469090026e-26
1.062983851e-28
4.760275718e-32
1.668636917e-07
1.646474056e-07
1.601486646e-07
1.529790559e-07
1.426798795e-07
1.289137814e-07
1.116099930e-07
9.106650674e-08
6.801206232e-08
4.366366814e-08
1.991345393e-08
9.003203313e-10
2.365525615e-17
4.056751025e-19
1.312706260e-20
4.247924180e-22
8.904251308e-24
6.856941621e-26
9.990555107e-29
4.679767226e-32
1.648936854e-07
1.625824743e-07
1.579256184e-07
1.505718787e-07
1.401035088e-07
1.262226779e-07
1.088906965e-07
8.842633377e-08
6.556799732e-08
4.153693274e-08
1.824453385e-08
3.088502609e-10
1.826489158e-17
3.454835160e-19
1.160429086e-20
3.828103268e-22
8.111394256e-24
6.299952701e-26
9.396569489e-29
4.600894525e-32
1.628516731e-07
1.604534984e-07
1.556524617e-07
1.481324581e-07
1.375143658e-07
1.235376753e-07
1.061937251e-07
8.582094413e-08
6.316710394e-08
3.945835249e-08
1.662898291e-08
1.628292961e-11
1.426407057e-17
2.952567063e-19
1.027702954e-20
3.453791590e-22
7.395382196e-24
5.792347620e-26
8.843435660e-29
4.523194919e-32
1.607453650e-07
1.582676942e-07
1.533355506e-07
1.456659723e-07
1.349163693e-07
1.208612647e-07
1.035204199e-07
8.325076356e-08
6.080904541e-08
3.742729251e-08
1.506661760e-08
6.156657738e-14
1.125298654e-17
2.531638656e-19
9.117388228e-21
3.119472637e-22
6.747886778e-24
5.329100891e-26
8.327411164e-29
4.446282099e-32
1.585819001e-07
1.560317321e-07
1.509807379e-07
1.431772155e-07
1.323130195e-07
1.181957939e-07
1.008720171e-07
8.071606097e-08
5.849355783e-08
3.544313421e-08
1.355731078e-08
1.066479436e-14
8.958683028e-18
2.177460300e-19
8.101895890e-21
2.820398155e-22
6.161529725e-24
4.905721335e-26
7.845153852e-29
4.369894850e-32
1.563678349e-07
1.537517283e-07
1.485933727e-07
1.406705175e-07
1.297075722e-07
1.155433916e-07
9.824957543e-08
7.821711719e-08
5.622027466e-08
3.350530434e-08
1.210128494e-08
3.814457743e-15
7.191018847e-18
1.878310475e-19
7.210703920e-21
2.552464394e-22
5.629880875e-24
4.518288666e-26
7.393741810e-29
4.293725092e-32
1.541092828e-07
1.514334558e-07
1.461784530e-07
1.381498875e-07
1.271029453e-07
1.129058744e-07
9.565404153e-08
7.575408056e-08
5.398886380e-08
3.161328229e-08
1.069898252e-08
1.796892145e-15
5.815421069e-18
1.624733543e-19
6.427022498e-21
2.312078032e-22
5.147288531e-24
4.163404546e-26
6.970572274e-29
4.217606917e-32
1.518118878e-07
1.490820622e-07
1.437405004e-07
1.356190398e-07
1.245018502e-07
1.102849799e-07
9.308623345e-08
7.332710443e-08
5.179903412e-08
2.976655962e-08
9.351251490e-09
9.802121810e-16
4.735191036e-18
1.409055399e-19
5.736526778e-21
2.096118742e-22
4.708737048e-24
3.837930152e-26
6.573424651e-29
4.141390370e-32
1.494808533e-07
1.467024662e-07
1.412837380e-07
1.330813051e-07
1.219067276e-07
1.076822582e-07
9.054685574e-08
7.093627194e-08
4.965040064e-08
2.796467864e-08
8.059423531e-09
5.861092825e-16
3.879836526e-18
1.225027982e-19
5.127018145e-21
1.901860100e-22
4.309793082e-24
3.539177432e-26
6.200276780e-29
4.064945902e-32
1.471209586e-07
1.442990948e-07
1.388120471e-07
1.305397795e-07
1.193197751e-07
1.050990439e-07
8.803655448e-08
6.858159312e-08
4.754265305e-08
2.620726529e-08
6.825494016e-09
3.733311211e-16
3.197399006e-18
1.067522958e-19
4.588041477e-21
1.726903621e-22
3.946554260e-24
3.264708844e-26
5.849262914e-29
3.988172986e-32
1.447366768e-07
1.418760923e-07
1.363289897e-07
1.279973454e-07
1.167430773e-07
1.025366091e-07
8.555587894e-08
6.626309096e-08
4.547544406e-08
2.449395386e-08
5.652464324e-09
2.491006656e-16
2.649113665e-18
9.323366996e-20
4.110653942e-21
1.569165399e-22
3.615520010e-24
3.012344038e-26
5.518818529e-29
3.910966427e-32
1.423321305e-07
1.394372773e-07
1.338378356e-07
1.254565541e-07
1.141784613e-07
9.999605598e-08
8.310528749e-08
6.398074773e-08
4.344845241e-08
2.282445079e-08
4.544738120e-09
1.722488960e-16
2.205742194e-18
8.159840498e-20
3.687138968e-21
1.426785664e-22
3.313593353e-24
2.780144946e-26
5.207435598e-29
3.833277423e-32
1.399111015e-07
1.369861453e-07
1.313416263e-07
1.229197924e-07
1.116275878e-07
9.747838579e-08
8.068517381e-08
6.173449410e-08
4.146138115e-08
2.119851657e-08
3.508870142e-09
1.225394771e-16
1.845067017e-18
7.155814909e-20
3.310850090e-21
1.298147233e-22
3.037993940e-24
2.566334568e-26
4.913829635e-29
3.755063179e-32
1.374770723e-07
1.345259320e-07
1.288430920e-07
1.203892520e-07
1.090919964e-07
9.498449182e-08
7.829588130e-08
5.952424786e-08
3.951391144e-08
1.961599272e-08
2.554853531e-09
8.922409801e-17
1.550027513e-18
6.287300476e-20
2.976033665e-21
1.181809429e-22
2.786260080e-24
2.369349163e-26
4.636779862e-29
3.676317841e-32
1.350332955e-07
1.320596465e-07
1.263448109e-07
1.178669184e-07
1.065730619e-07
9.251514848e-08
7.593769075e-08
5.734993415e-08
3.760572874e-08
1.807678662e-08
1.698248169e-09
6.623855887e-17
1.307415050e-18
5.534203233e-20
2.677708087e-21
1.076496755e-22
2.556154143e-24
2.187761665e-26
4.375213587e-29
3.597057554e-32
1.325827297e-07
1.295900045e-07
1.238491208e-07
1.153546179e-07
1.040720586e-07
9.007108301e-08
7.361084480e-08
5.521142867e-08
3.573657940e-08
1.658090712e-08
9.641247133e-10
4.999216422e-17
1.106947643e-18
4.879754485e-20
2.411548256e-21
9.810880410e-23
2.345699802e-24
2.020305757e-26
4.128173365e-29
3.517349863e-32
1.301281374e-07
1.271195649e-07
1.213581762e-07
1.128539997e-07
1.015900802e-07
8.765290384e-08
7.131551498e-08
5.310861489e-08
3.390620987e-08
1.512847554e-08
3.939013089e-10
3.827100288e-17
9.405490550e-19
4.309800633e-20
2.173790192e-21
8.945768576e-23
2.153102428e-24
1.865794265e-26
3.894757391e-29
3.437230595e-32
1.276720709e-07
1.246506038e-07
1.188739482e-07
1.103665996e-07
9.912817201e-08
8.526116292e-08
6.905188084e-08
5.104133293e-08
3.211435533e-08
1.371973507e-08
5.622494946e-11
2.966402366e-17
8.018394074e-19
3.812393488e-20
1.961138292e-21
8.160736112e-23
1.976758130e-24
1.723183784e-26
3.674152099e-29
3.356764199e-32
1.252168262e-07
1.221853558e-07
1.163982424e-07
1.078938093e-07
9.668731350e-08
8.289636201e-08
6.682003678e-08
4.900948098e-08
3.036079920e-08
1.235508862e-08
1.856644505e-13
2.324603296e-17
6.857409923e-19
3.377481346e-20
1.770730621e-21
7.447879406e-23
1.815216728e-24
1.591521692e-26
3.465624259e-29
3.276040707e-32
1.227645687e-07