/*--------------------------------*- C++ -*----------------------------------*\
| =========                 |                                                 |
| \\      /  F ield         | OpenFOAM: The Open Source CFD Toolbox           |
|  \\    /   O peration     | Version:  5.x                                   |
|   \\  /    A nd           | Web:      www.OpenFOAM.org                      |
|    \\/     M anipulation  |                                                 |
\*---------------------------------------------------------------------------*/
FoamFile
{
    version     2.0;
    format      ascii;
    class       volScalarField;
    location    "3.5";
    object       C2H6;
}
// * * * * * * * * * * * * * * * * * * * * * * * * * * * * * * * * * * * * * //

dimensions      [0 0 0 0 0 0 0];

internalField   nonuniform List<scalar>
51080
(
0.000000000e+00
0.000000000e+00
0.000000000e+00
0.000000000e+00
0.000000000e+00
0.000000000e+00
0.000000000e+00
0.000000000e+00
0.000000000e+00
0.000000000e+00
3.002557053e-03
3.250949402e-03
3.493541497e-03
3.768239239e-03
4.068396431e-03
4.336615897e-03
4.485829013e-03
4.372137297e-03
3.737864865e-03
2.268131284e-03
0.000000000e+00
0.000000000e+00
0.000000000e+00
0.000000000e+00
0.000000000e+00
0.000000000e+00
0.000000000e+00
0.000000000e+00
2.861293098e-03
3.073848720e-03
3.324003361e-03
3.567717881e-03
3.843480305e-03
4.140896046e-03
4.387616324e-03
4.494415631e-03
4.318162366e-03
3.657884417e-03
2.393785921e-03
1.078608174e-03
0.000000000e+00
0.000000000e+00
0.000000000e+00
0.000000000e+00
0.000000000e+00
0.000000000e+00
0.000000000e+00
2.926976038e-03
3.137936576e-03
3.388168717e-03
3.630225403e-03
3.898914270e-03
4.183292387e-03
4.409887946e-03
4.496659633e-03
4.317785230e-03
3.709322518e-03
2.594894391e-03
1.361097770e-03
5.744964510e-04
0.000000000e+00
0.000000000e+00
0.000000000e+00
0.000000000e+00
0.000000000e+00
2.823888975e-03
2.990485915e-03
3.191065419e-03
3.423138910e-03
3.677361275e-03
3.935120620e-03
4.207124619e-03
4.419424058e-03
4.499108803e-03
4.338507768e-03
3.799714386e-03
2.809248165e-03
1.629738377e-03
7.798025007e-04
3.160994197e-04
0.000000000e+00
0.000000000e+00
0.000000000e+00
0.000000000e+00
2.903154503e-03
3.061186497e-03
3.253800113e-03
3.479207262e-03
3.731046692e-03
3.962352265e-03
4.219936018e-03
4.421101575e-03
4.501538404e-03
4.368632185e-03
3.902979441e-03
3.028115070e-03
1.907029148e-03
9.960594639e-04
4.590687937e-04
1.713504001e-04
0.000000000e+00
2.811421252e-03
2.885114734e-03
2.993662931e-03
3.137746783e-03
3.317271115e-03
3.529820384e-03
3.768567283e-03
3.987297467e-03
4.225752674e-03
4.417445636e-03
4.502861098e-03
4.401679606e-03
4.008658830e-03
3.244685103e-03
2.195756476e-03
1.235672108e-03
6.198131243e-04
2.714241948e-04
8.792581903e-05
2.971421035e-03
3.016182668e-03
3.100885861e-03
3.224083025e-03
3.384552447e-03
3.579151837e-03
3.800758087e-03
4.004643373e-03
4.226202550e-03
4.409539410e-03
4.501985999e-03
4.433713543e-03
4.111147718e-03
3.454607209e-03
2.492992867e-03
1.505889151e-03
8.061089851e-04
3.910224920e-04
1.575963783e-04
4.050987359e-05
3.182614206e-03
3.232635512e-03
3.326428104e-03
3.460721817e-03
3.631535870e-03
3.831562450e-03
4.017936060e-03
4.221875566e-03
4.398013467e-03
4.498042584e-03
4.461891843e-03
4.206369304e-03
3.653504115e-03
2.792274492e-03
1.808806359e-03
1.026121351e-03
5.349884791e-04
2.467890380e-04
8.779023764e-05
1.510543215e-05
3.398868021e-03
3.452679181e-03
3.552461705e-03
3.692585956e-03
3.865508226e-03
4.030077030e-03
4.213252418e-03
4.381489687e-03
4.491169374e-03
4.483882091e-03
4.290741902e-03
3.836735640e-03
3.085030727e-03
2.139954919e-03
1.287456222e-03
7.099432294e-04
3.588509394e-04
1.538392884e-04
4.545123765e-05
3.285040719e-06
3.611846562e-03
3.667378233e-03
3.769060892e-03
3.908529517e-03
4.046703427e-03
4.206486574e-03
4.365224574e-03
4.479864997e-03
4.498988774e-03
4.362139828e-03
4.000282349e-03
3.362045982e-03
2.488027672e-03
1.594484714e-03
9.240515521e-04
4.989318124e-04
2.413189154e-04
9.345468294e-05
2.069578226e-05
4.699465090e-13
3.813663347e-03
3.867673272e-03
3.966102183e-03
4.072002438e-03
4.205547338e-03
4.350699349e-03
4.465846447e-03
4.506497820e-03
4.419226371e-03
4.141201395e-03
3.614991854e-03
2.837120560e-03
1.944147254e-03
1.185978135e-03
6.740489534e-04
3.544153591e-04
1.615146454e-04
5.439703190e-05
7.302546156e-06
3.592233693e-16
4.004729357e-03
4.044944010e-03
4.110415271e-03
4.214903299e-03
4.342605073e-03
4.451511263e-03
4.506739547e-03
4.460953392e-03
4.257220034e-03
3.837166492e-03
3.170449026e-03
2.322972333e-03
1.501681099e-03
8.930215657e-04
4.989848912e-04
2.532412851e-04
1.068282075e-04
2.957964114e-05
1.151135598e-06
6.198037648e-18
4.121672874e-03
4.162914281e-03
4.241397697e-03
4.342925892e-03
4.439958580e-03
4.501785970e-03
4.487797143e-03
4.347223516e-03
4.023835756e-03
3.473132598e-03
2.708794162e-03
1.868507386e-03
1.165288407e-03
6.827938824e-04
3.736341972e-04
1.812729660e-04
6.927111170e-05
1.436751477e-05
5.898325335e-14
2.644494904e-19
4.242855024e-03
4.286180264e-03
4.357036318e-03
4.434998759e-03
4.494919179e-03
4.502097387e-03
4.412093190e-03
4.172848474e-03
3.734287648e-03
3.077010506e-03
2.270002156e-03
1.496853079e-03
9.153798800e-04
5.293680722e-04
2.821407086e-04
1.295201711e-04
4.359216369e-05
5.632117303e-06
4.063646533e-16
1.862094842e-20
4.354669143e-03
4.388508886e-03
4.440815078e-03
4.490179329e-03
4.507557129e-03
4.454721386e-03
4.284948910e-03
3.948041552e-03
3.406881302e-03
2.677851900e-03
1.882701428e-03
1.206246158e-03
7.290152183e-04
4.152339278e-04
2.143354386e-04
9.204909138e-05
2.624185806e-05
1.195615338e-06
1.542907918e-17
1.807130088e-21
4.435753665e-03
4.459308161e-03
4.491220621e-03
4.508528436e-03
4.479488593e-03
4.363454124e-03
4.113380739e-03
3.684933245e-03
3.061388488e-03
2.300890313e-03
1.559269588e-03
9.824973489e-04
5.880466502e-04
3.288644586e-04
1.634835980e-04
6.482482805e-05
1.476690499e-05
5.083330267e-13
1.169713029e-18
2.186215766e-22
4.486572466e-03
4.498900141e-03
4.508602295e-03
4.491361772e-03
4.413509579e-03
4.233253001e-03
3.905622487e-03
3.396774513e-03
2.716951747e-03
1.963635154e-03
1.297980333e-03
8.097474918e-04
4.796730967e-04
2.625549562e-04
1.249886240e-04
4.503938333e-05
7.438115953e-06
3.200559327e-15
1.347396896e-19
3.101993211e-23
4.507857565e-03
4.508155551e-03
4.494259418e-03
4.440894299e-03
4.313263597e-03
4.069894659e-03
3.670676726e-03
3.097012149e-03
2.389675725e-03
1.674135904e-03
1.089697844e-03
6.749079869e-04
3.950846998e-04
2.110260014e-04
9.563338175e-05
3.070204481e-05
3.013816952e-06
1.659988155e-16
2.071346969e-20
4.970272894e-24
4.500760038e-03
4.488464224e-03
4.450111479e-03
4.359954832e-03
4.182970603e-03
3.879681566e-03
3.417862386e-03
2.798243752e-03
2.090996763e-03
1.432221943e-03
9.236605488e-04
5.682509400e-04
3.281706046e-04
1.705696197e-04
7.312006005e-05
2.038004905e-05
6.057744511e-07
1.713827756e-17
3.942389454e-21
8.786277053e-25
4.466818666e-03
4.441631062e-03
4.378510332e-03
4.251786477e-03
4.027223312e-03
3.669188920e-03
3.156333441e-03
2.511115655e-03
1.827044443e-03
1.232770595e-03
7.903418674e-04
4.827701077e-04
2.746141528e-04
1.385244773e-04
5.577973240e-05
1.302857179e-05
7.666992437e-13
2.643274954e-18
8.856934973e-22
1.690431116e-25
4.407884610e-03
4.369774292e-03
4.282111469e-03
4.119907081e-03
3.850830482e-03
3.445024708e-03
2.894582355e-03
2.243540195e-03
1.599066572e-03
1.068858107e-03
6.822000931e-04
4.134263652e-04
2.313059628e-04
1.129454255e-04
4.238349492e-05
7.876972619e-06
1.192751145e-14
5.374707874e-19
2.274635551e-22
3.515166236e-26
4.326048174e-03
4.275243644e-03
4.163782371e-03
3.968008583e-03
3.658684399e-03
3.213593953e-03
2.639948003e-03
2.000501129e-03
1.404879306e-03
9.337113843e-04
5.935219357e-04
3.565555269e-04
1.959637719e-04
9.238845015e-05
3.201564655e-05
4.350986806e-06
1.044013081e-15
1.343097298e-19
6.531244514e-23
7.885834747e-27
4.223579553e-03
4.160557433e-03
4.026535080e-03
3.799877164e-03
3.455639567e-03
2.980855543e-03
2.398165294e-03
1.784084724e-03
1.240506064e-03
8.215294323e-04
5.200333802e-04
3.094550518e-04
1.668852632e-04
7.576749955e-05
2.398704944e-05
2.020851922e-06
1.623641278e-16
3.944285954e-20
2.063798126e-23
1.913281042e-27
4.102884016e-03
4.028355918e-03
3.873473829e-03
3.619322040e-03
3.246387771e-03
2.752086423e-03
2.173319206e-03
1.594041101e-03
1.101451809e-03
7.276390559e-04
4.585310551e-04
2.701000624e-04
1.427821051e-04
6.225618909e-05
1.777433068e-05
5.783045119e-07
3.520270128e-17
1.320016945e-20
7.094461856e-24
5.050103700e-28
3.966466783e-03
3.881364512e-03
3.707749759e-03
3.430106637e-03
3.035327992e-03
2.531631084e-03
1.967790735e-03
1.428560221e-03
9.834508479e-04
6.483782810e-04
4.065937547e-04
2.369525243e-04
1.226669440e-04
5.121966613e-05
1.297689701e-05
4.342854367e-11
9.593613675e-18
4.923784151e-21
2.630206221e-24
1.461113696e-28
3.816903116e-03
3.722359050e-03
3.532514282e-03
3.235871494e-03
2.826436530e-03
2.322821466e-03
1.782415303e-03
1.285020582e-03
8.827905360e-04
5.809015556e-04
3.623709869e-04
2.088285657e-04
1.057747137e-04
4.216576973e-05
9.285893740e-06
1.280902978e-13
3.102604782e-18
2.013294898e-21
1.044655983e-24
4.664001793e-29
3.656809189e-03
3.554131872e-03
3.350870099e-03
3.040051864e-03
2.623128975e-03
2.127985512e-03
1.616810764e-03
1.160555653e-03
7.963816833e-04
5.229974623e-04
3.244322640e-04
1.848058094e-04
9.150681084e-05
3.470992266e-05
6.461679494e-06
1.347003297e-14
1.147836707e-18
8.909063769e-22
4.421099975e-25
1.647524148e-29
3.488807863e-03
3.379449763e-03
3.165811810e-03
2.845793539e-03
2.428143198e-03
1.948436656e-03
1.469767673e-03
1.052404930e-03
7.217129752e-04
4.729376808e-04
2.916594980e-04
1.641586270e-04
7.939077714e-05
2.854946623e-05
4.317406063e-06
2.662576402e-15
4.735994854e-19
4.223398078e-22
1.984795030e-25
6.430623491e-30
3.315492058e-03
3.201009283e-03
2.980163404e-03
2.655856897e-03
2.243585363e-03
1.784595716e-03
1.339611199e-03
9.580880391e-04
6.567621192e-04
4.293619536e-04
2.631689058e-04
1.463103407e-04
6.905067262e-05
2.344456482e-05
2.707128231e-06
7.218364043e-16
2.139144884e-19
2.127329346e-22
9.415595377e-26
2.758945823e-30
3.139377127e-03
3.021381348e-03
2.796510864e-03
2.472517608e-03
2.070881272e-03
1.636173768e-03
1.224486443e-03
8.754642225e-04
5.999042195e-04
3.911897846e-04
2.382558798e-04
1.307987585e-04
6.018510461e-05
1.920402647e-05
1.517951248e-06
2.397754401e-16
1.042842227e-19
1.130857962e-22
4.703562350e-26
1.291357240e-30
2.962851047e-03
2.842954471e-03
2.617117605e-03
2.297604649e-03
1.910805632e-03
1.502378768e-03
1.122552399e-03
8.027276932e-04
5.498314523e-04
3.575555221e-04
2.163528929e-04
1.172506160e-04
5.255090108e-05
1.567451066e-05
6.681387226e-07
9.221636778e-17
5.426651133e-20
6.308318106e-23
2.466589878e-26
6.540065536e-31
2.788117384e-03
2.667868693e-03
2.443866753e-03
2.132457320e-03
1.763567334e-03
1.382110227e-03
1.032094290e-03
7.383734192e-04
5.054857458e-04
3.277601124e-04
1.969994204e-04
1.053621465e-04
4.595063663e-05
1.273242095e-05
1.267469974e-07
3.969589585e-17
2.987572038e-20
3.674926958e-23
1.353889672e-26
3.554804837e-31
2.617125292e-03
2.497936449e-03
2.278291266e-03
1.977920578e-03
1.628918550e-03
1.274119367e-03
9.515767861e-04
6.811537216e-04
4.660069554e-04
3.012338762e-04
1.798188159e-04
9.488457713e-05
4.022299590e-05
1.027754990e-05
7.319382000e-12
1.869946110e-17
1.727515079e-20
2.226323877e-23
7.756742169e-27
2.058049752e-31
2.451523827e-03
2.334673016e-03
2.121523994e-03
1.834387605e-03
1.506281346e-03
1.177128975e-03
8.796580903e-04
6.300357396e-04
4.306903673e-04
2.775094804e-04
1.645007869e-04
8.561287945e-05
3.523553794e-05
8.228290969e-06
3.085733764e-13
9.486054156e-18
1.042861924e-20
1.397448723e-23
4.626208126e-27
1.260496001e-31
2.292682771e-03
2.179258418e-03
1.974298263e-03
1.701866537e-03
1.394863181e-03
1.089909561e-03
8.151820658e-04
5.841631093e-04
3.989554319e-04
2.562007482e-04
1.507882930e-04
7.737705561e-05
3.087883289e-05
6.517894317e-06
5.827621974e-14
5.120334785e-18
6.539356060e-21
9.059184741e-24
2.864985065e-27
8.118682289e-32
2.141647737e-03
2.032516259e-03
1.836977638e-03
1.580060847e-03
1.293757868e-03
1.011323254e-03
7.571623959e-04
5.428227115e-04
3.703206978e-04
2.369859156e-04
1.384666381e-04
7.003542344e-05
2.706210096e-05
5.091519600e-06
1.702041302e-14
2.913591300e-18
4.241150678e-21
6.047810838e-24
1.837852371e-27
5.470456934e-32
1.999134262e-03
1.894931327e-03
1.709605964e-03
1.468455547e-03
1.202021764e-03
9.403453844e-04
7.047601386e-04
5.054191134e-04
3.443838378e-04
2.195958053e-04
1.273558852e-04
6.346929034e-05
2.370960983e-05
3.903982887e-06
6.235814305e-15
1.734839386e-18
2.834451343e-21
4.146882871e-24
1.218166532e-27
3.837105638e-32
1.865542880e-03
1.766684055e-03
1.591968981e-03
1.366393993e-03
1.118728492e-03
8.760668658e-04
6.572627166e-04
4.714524891e-04
3.208071291e-04
2.038036702e-04
1.173042707e-04
5.757866880e-05
2.075798628e-05
2.918010678e-06
2.642211796e-15
1.074445769e-18
1.945854593e-21
2.913730483e-24
8.323601308e-28
2.790116469e-32
1.740997234e-03
1.647697805e-03
1.483659164e-03
1.273145353e-03
1.043001818e-03
8.176924358e-04
6.140648046e-04
4.405009276e-04
2.993050769e-04
1.894171143e-04
1.081830442e-04
5.227898865e-05
1.815382567e-05
2.102962537e-06
1.242262667e-15
6.887419950e-19
1.368380551e-21
2.093480587e-24
5.850169700e-28
2.095707950e-32
1.625388706e-03
1.537693851e-03
1.384139801e-03
1.187955551e-03
9.740352421e-04
7.645285359e-04
5.746503955e-04
4.122069551e-04
2.796352350e-04
1.762726260e-04
9.988258182e-05
4.749832891e-05
1.585201819e-05
1.434027436e-06
6.323485301e-16
4.550716196e-19
9.833589581e-22
1.535154757e-24
4.220489330e-28
1.620697308e-32
1.518425534e-03
1.436248155e-03
1.292798536e-03
1.110082959e-03
9.110990188e-04
7.159738147e-04
5.385790425e-04
3.862653104e-04
2.615903695e-04
1.642300999e-04
9.230907864e-05
4.317535465e-05
1.381427750e-05
8.921584995e-07
3.429157786e-16
3.088439562e-19
7.206156701e-22
1.146960648e-24
3.119159059e-28
1.286795148e-32
1.419688608e-03
1.342841524e-03
1.208990878e-03
1.038823130e-03
8.535408840e-04
6.715076060e-04
5.054733541e-04
3.624149910e-04
2.449923676e-04
1.531690533e-04
8.538181984e-05
3.925743956e-05
1.200796464e-05
4.656347604e-07
1.958717879e-16
2.146522319e-19
5.374702878e-22
8.716547118e-25
2.356559901e-28
1.045774784e-32
1.328674133e-03
1.256903207e-03
1.132073819e-03
9.735219874e-04
8.007823708e-04
6.306783589e-04
4.750081475e-04
3.404311600e-04
2.296881185e-04
1.429853776e-04
7.903123294e-05
3.569933622e-05
1.040517404e-05
1.565098164e-07
1.168626310e-16
1.523922071e-19
4.073261660e-22
6.728434221e-25
1.816741906e-28
8.678355652e-33
1.244834776e-03
1.177845719e-03
1.061426041e-03
9.135816039e-04
7.523135423e-04
5.930943990e-04
4.469031062e-04
3.201193785e-04
2.155443996e-04
1.335888942e-04
7.319699093e-05
3.246193217e-05
8.981927816e-06
4.087479998e-09
7.236024107e-17
1.102713777e-19
3.132068687e-22
5.268606806e-25
1.426907131e-28
7.340541393e-33
1.167609896e-03
1.105088026e-03
9.964638398e-04
8.584623050e-04
7.076853851e-04
5.584155642e-04
4.209149066e-04
3.013107919e-04
2.024454669e-04
1.249009859e-04
6.782655509e-05
2.951131597e-05
7.717552779e-06
3.810763001e-12
4.626441216e-17
8.117108384e-20
2.440325076e-22
4.179935519e-25
1.139977775e-28
6.316086513e-33
1.096446745e-03
1.038074314e-03
9.366472192e-04
8.076803143e-04
6.665037715e-04
5.263448879e-04
3.968315524e-04
2.838580862e-04
1.902901369e-04
1.168527652e-04
6.287409119e-05
2.681799114e-05
6.594185304e-06
5.601286397e-13
3.041863494e-17
6.068072169e-20
1.924321186e-22
3.356260776e-25
9.250176211e-29
5.518524932e-33
1.030817145e-03
9.762820417e-04
8.814833803e-04
7.608041347e-04
6.284219515e-04
4.966231049e-04
3.744680801e-04
2.676322716e-04
1.789896938e-04
1.093840437e-04
5.829942500e-05
2.435614948e-05
5.596273712e-06
1.640001100e-13
2.049796511e-17
4.600110622e-20
1.534117660e-22
2.724675044e-25
7.612979269e-29
4.888354554e-33
9.702248539e-04
9.192292759e-04
8.305260028e-04
7.174504234e-04
5.931351907e-04
4.690231702e-04
3.536620116e-04
2.525200112e-04
1.684660211e-04
1.024415929e-04
5.406724075e-05
2.210318083e-05
4.710317909e-06
6.341474004e-14
1.411719968e-17
3.531740997e-20
1.235321205e-22
2.234342048e-25
6.347078747e-29
4.383951454e-33
9.142111906e-04
8.664752540e-04
7.833744885e-04
6.772788329e-04
5.603747656e-04
4.433452435e-04
3.342704671e-04
2.384210202e-04
1.586498764e-04
9.597841741e-05
5.014632479e-05
2.003924141e-05
3.924520479e-06
2.866137191e-14
9.913376959e-18
2.742927536e-20
1.003855203e-22
1.849291635e-25
5.354550441e-29
3.975241093e-33
8.623568206e-04
8.176202811e-04
7.396691263e-04
6.399877840e-04
5.299036801e-04
4.194129063e-04
3.161669478e-04
2.252468483e-04
1.494800731e-04
8.995292243e-05
4.650908319e-05
1.814675789e-05
3.228590505e-06
1.434980132e-14
7.083572064e-18
2.152755001e-20
8.225834869e-23
1.543533311e-25
4.565448193e-29
3.641054778e-33
8.142810472e-04
7.723040097e-04
6.990891789e-04
6.053091242e-04
5.015123987e-04
3.970704412e-04
2.992394654e-04
2.129185771e-04
1.409021366e-04
8.432807210e-05
4.313099217e-05
1.641022452e-05
2.613520301e-06
7.733199596e-15
5.141475911e-18
1.705812437e-20
6.792028710e-23
1.298257403e-25
3.929883767e-29
3.362946208e-33
7.696398101e-04
7.302028576e-04
6.613474471e-04
5.730052841e-04
4.750151007e-04
3.761793742e-04
2.833884689e-04
2.013661242e-04
1.328673443e-04
7.907073184e-05
3.999028087e-05
1.481585127e-05
2.071526310e-06
4.408473502e-15
3.785123531e-18
1.363568086e-20
5.647679721e-23
1.099749417e-25
3.412868869e-29
3.131256187e-33
7.281233788e-04
6.910261186e-04
6.261885535e-04
5.428642732e-04
4.502467175e-04
3.566166263e-04
2.685250071e-04
1.905266738e-04
1.253322414e-04
7.415139552e-05
3.706740867e-05
1.335138710e-05
1.595935467e-06
2.628230729e-15
2.822676557e-18
1.098795609e-20
4.726500620e-23
9.376993670e-26
2.987876723e-29
2.936541077e-33
6.894534961e-04
6.545139770e-04
5.933838577e-04
5.146980319e-04
4.270597970e-04
3.382721718e-04
2.545695963e-04
1.803439467e-04
1.182577431e-04
6.954352849e-05
3.434491801e-05
1.200586028e-05
1.181257938e-06
1.625577317e-15
2.129788634e-18
8.919997808e-21
3.979092736e-23
8.043235880e-26
2.634913935e-29
2.771344337e-33
6.533806190e-04
6.204333162e-04
5.627294144e-04
4.883379091e-04
4.053231173e-04
3.210478426e-04
2.414507415e-04
1.707673135e-04
1.116086626e-04
6.522323657e-05
3.180715470e-05
1.076945348e-05
8.234158576e-07
1.036976821e-15
1.624278498e-18
7.290639921e-21
3.368172242e-23
6.937085826e-26
2.338984862e-29
2.630127213e-33
6.196810335e-04
5.885753419e-04
5.340428037e-04
4.636337074e-04
3.849188552e-04
3.048550208e-04
2.291042587e-04
1.617512285e-04
1.053532619e-04
6.116901962e-05
2.943998965e-05
9.633340831e-06
5.203705090e-07
6.792204511e-16
1.250976960e-18
5.996358996e-21
2.865377547e-23
6.013162856e-26
2.088711931e-29
2.508541429e-33
5.881534095e-04
5.587530567e-04
5.071601394e-04
4.404502908e-04
3.657411304e-04
2.896143312e-04
2.174721309e-04
1.532541991e-04
9.946279909e-05
5.736137221e-05
2.723062968e-05
8.589575079e-06
2.737057296e-07
4.552138885e-16
9.721981122e-19
4.960436886e-21
2.448938466e-23
5.236366856e-26
1.875310648e-29
2.403146359e-33
5.586173764e-04
5.307982895e-04
4.819344944e-04
4.186665299e-04
3.476951321e-04
2.752540638e-04
2.065019359e-04
1.452391394e-04
9.391135436e-05
5.378267484e-05
2.516759233e-05
7.630977973e-06
9.261012063e-08
3.112939799e-16
7.618475212e-19
4.125475140e-21
2.101946386e-23
4.579195765e-26
1.691950642e-29
2.311165071e-33
5.309104428e-04
5.045598044e-04
4.582340889e-04
3.981734134e-04
3.306947318e-04
2.617091216e-04
1.961462354e-04
1.376718754e-04
8.867516245e-05
5.041688537e-05
2.324035154e-05
6.751047559e-06
3.590455390e-09
2.167115769e-16
6.016071335e-19
3.448079551e-21
1.811233060e-23
4.020041200e-26
1.533289524e-29
2.230368099e-33
5.048866228e-04
4.799016701e-04
4.359395643e-04
3.788722871e-04
3.146623956e-04
2.489209262e-04
1.863616399e-04
1.305216702e-04
8.373272347e-05
4.724938670e-05
2.143942710e-05
5.943893073e-06
8.727791101e-12
1.532951065e-16
4.784574823e-19
2.895166357e-21
1.566400720e-23
3.541713140e-26
1.395063839e-29
2.158904149e-33
4.804141869e-04
4.567013855e-04
4.149439200e-04
3.606742970e-04
2.995277727e-04
2.368359324e-04
1.771090009e-04
1.237602007e-04
7.906435294e-05
4.426689584e-05
1.975611858e-05
5.204144013e-06
1.362702343e-12
1.100053747e-16
3.830291168e-19
2.441301480e-21
1.359220957e-23
3.130473015e-26
1.273892076e-29
2.095270934e-33
4.573737043e-04
4.348476845e-04
3.951494837e-04
3.434987614e-04
2.852270476e-04
2.254054570e-04
1.683522790e-04
1.173618414e-04
7.465209281e-05
4.145725214e-05
1.818252301e-05
4.526932786e-06
4.271072076e-13
7.997440132e-17
3.085156418e-19
2.066750856e-21
1.183108725e-23
2.775257976e-26
1.167042612e-29
2.038211473e-33
4.356577595e-04
4.142404953e-04
3.764685139e-04
3.272721700e-04
2.717018320e-04
2.145851239e-04
1.600587439e-04
1.113029098e-04
7.047942532e-05
3.880923126e-05
1.671137119e-05
3.907800527e-06
1.759409585e-13
5.883463033e-17
2.499183594e-19
1.756123339e-21
1.032777714e-23
2.467084628e-26
1.072306512e-29
1.986659896e-33
4.151686240e-04
3.947884610e-04
3.588209607e-04
3.119282114e-04
2.588993923e-04
2.043342882e-04
1.521982470e-04
1.055618510e-04
6.653127287e-05
3.631267584e-05
1.533599681e-05
3.342700320e-06
8.415020514e-14
4.375419285e-17
2.035287920e-19
1.497323171e-21
9.039465438e-24
2.198636992e-26
9.878703659e-30
1.939746605e-33
3.958174759e-04
3.764090638e-04
3.421339240e-04
2.974059744e-04
2.467711794e-04
1.946158009e-04
1.447432894e-04
1.001187019e-04
6.279366578e-05
3.395810796e-05
1.405030619e-05
2.827926440e-06
4.429134516e-14
3.286426938e-17
1.665743509e-19
1.280760107e-21
7.931406046e-24
1.963914813e-26
9.122547203e-30
1.896724239e-33
3.775238249e-04
3.590268110e-04
3.263411337e-04
2.836499489e-04
2.352727489e-04
1.853956178e-04
1.376683841e-04
9.495518654e-05
5.925383855e-05
3.173690407e-05
1.284866391e-05
2.360144851e-06
2.493912501e-14
2.491203224e-17
1.369636898e-19
1.098801551e-21
6.975067246e-24
1.757944390e-26
8.442274494e-30
1.856950269e-33
3.602139622e-04
3.425729713e-04
3.113819334e-04
2.706092523e-04
2.243634081e-04
1.766422839e-04
1.309502000e-04
9.005440708e-05
5.589992549e-05
2.964104582e-05
1.172587718e-05
1.936367179e-06
1.477259733e-14
1.904470241e-17
1.131086693e-19
9.453392961e-22
6.147043885e-24
1.576606344e-26
7.827795202e-30
1.819901985e-33
3.438210051e-04
3.269849199e-04
2.972008664e-04
2.582376685e-04
2.140059337e-04
1.683270106e-04
1.245672261e-04
8.540080755e-05
5.272100679e-05
2.766313273e-05
1.067713110e-05
1.553971154e-06
9.105873082e-15
1.467416845e-17
9.379033926e-20
8.154438027e-22
5.427980583e-24
1.416471688e-26
7.270545695e-30
1.785091881e-33
3.282833108e-04
3.122051441e-04
2.837472639e-04
2.464921767e-04
2.041657843e-04
1.604230789e-04
1.184995154e-04
8.097989319e-05
4.970699669e-05
2.579634009e-05
9.697997706e-06
1.210777375e-06
5.797387657e-15
1.138956460e-17
7.807068578e-20
7.051268437e-22
4.801761670e-24
1.274649333e-26
6.763331964e-30
1.752135149e-33
3.135447850e-04
2.981809436e-04
2.709744405e-04
2.353335329e-04
1.948112633e-04
1.529059750e-04
1.127287061e-04
7.677837138e-05
4.684847048e-05
2.403429605e-05
8.784342069e-06
9.051842038e-07
3.791873103e-15
8.900555034e-18
6.522079678e-20
6.111362354e-22
4.254986151e-24
1.148712170e-26
6.300138038e-30
1.720704884e-33
2.995538516e-04
2.848639715e-04
2.588393503e-04
2.247256216e-04
1.859132944e-04
1.457529727e-04
1.072376641e-04
7.278379261e-05
4.413672325e-05
2.237111348e-05
7.932334423e-06
6.364448046e-07
2.537675625e-15
6.999957768e-18
5.467174279e-20
5.308234712e-22
3.776401874e-24
1.036613791e-26
5.875808175e-30
1.690506638e-33
2.862630946e-04
2.722097818e-04
2.473026868e-04
2.146348687e-04
1.774446102e-04
1.389430471e-04
1.020105672e-04
6.898468560e-05
4.156371434e-05
2.080131675e-05
7.138407955e-06
4.052565237e-07
1.732340579e-15
5.538125863e-18
4.597623181e-20
4.619999400e-22
3.356555578e-24
9.365985997e-27
5.485986882e-30
1.661292164e-33
2.736286589e-04
2.601774123e-04
2.363280095e-04
2.050305553e-04
1.693803443e-04
1.324565356e-04
9.703267462e-05
6.537028486e-05
3.912184707e-05
1.931979113e-05
6.399248465e-06
2.150188949e-07
1.203320427e-15
4.406179742e-18
3.878117637e-20
4.028681881e-22
2.987416507e-24
8.471823339e-27
5.126947990e-30
1.632842011e-33
2.616105311e-04
2.487290271e-04
2.258815067e-04
1.958841764e-04
1.616972567e-04
1.262753833e-04
9.229037944e-05
6.193068607e-05
3.680412494e-05
1.792180138e-05
5.711744572e-06
7.459508312e-08
8.488201199e-16
3.524066996e-18
3.280599311e-20
3.519358574e-22
2.662236260e-24
7.670788854e-27
4.795445685e-30
1.604975908e-33
2.501714809e-04
2.378296864e-04
2.159321723e-04
1.871690759e-04
1.543737691e-04
1.203827718e-04
8.777091188e-05
5.865654423e-05
3.460402096e-05
1.660286394e-05
5.072995845e-06
4.026426938e-09
6.070655118e-16
2.832558947e-18
2.782690712e-20
3.079644484e-22
2.375221523e-24
6.951889164e-27
4.488645678e-30
1.577529627e-33
2.392771293e-04
2.274472319e-04
2.064512122e-04
1.788608612e-04
1.473898339e-04
1.147628939e-04
8.346235746e-05
5.553919641e-05
3.251535616e-05
1.535884077e-05
4.480328294e-06
1.402731167e-11
4.395912386e-16
2.287398173e-18
2.366426980e-20
2.699158838e-22
2.121464900e-24
6.305666730e-27
4.204161783e-30
1.550366363e-33
2.288957922e-04
2.175515113e-04
1.974117969e-04
1.709367085e-04
1.407268811e-04
1.094011431e-04
7.935364594e-05
5.257050194e-05
3.053246307e-05
1.418583414e-05
3.931182211e-06
2.157442414e-12
3.219312340e-16
1.855336243e-18
2.017347908e-20
2.369232588e-22
1.896729063e-24
5.723817055e-27
3.939879833e-30
1.523393338e-33
2.189978930e-04
2.081148912e-04
1.887891507e-04
1.633754032e-04
1.343675865e-04
1.042839510e-04
7.543441808e-05
4.974287902e-05
2.864993333e-05
1.308019196e-05
3.423217789e-06
6.867666075e-13
2.382043264e-16
1.511183260e-18
1.723744205e-20
2.082595733e-22
1.697389574e-24
5.199169904e-27
3.693954539e-30
1.496502012e-33
2.095561225e-04
1.991116165e-04
1.805601247e-04
1.561571763e-04
1.282956693e-04
9.939843781e-05
7.169496197e-05
4.704921085e-05
2.686273795e-05
1.203849130e-05
2.954232972e-06
2.888267121e-13
1.779266958e-16
1.235749632e-18
1.476119451e-20
1.833088465e-22
1.520328237e-24
4.725568252e-27
3.464751213e-30
1.469633366e-33
2.005449839e-04
1.905176877e-04
1.727032917e-04
1.492636940e-04
1.224961229e-04
9.473272449e-05
6.812623249e-05
4.448286500e-05
2.516621200e-05
1.105751009e-05
2.522199226e-06
1.410969648e-13
1.340664143e-16
1.014314792e-18
1.266713348e-20
1.615517692e-22
1.362837972e-24
4.297441441e-27
3.250873764e-30
1.442734933e-33
1.919409684e-04
1.823107503e-04
1.651986373e-04
1.426776926e-04
1.169547983e-04
9.027565089e-05
6.471966745e-05
4.203755514e-05
2.355586893e-05
1.013420650e-05
2.125250056e-06
7.577972912e-14
1.018362790e-16
8.355348667e-19
1.089181262e-20
1.425476590e-22
1.222575938e-24
3.910046609e-27
3.051058566e-30
1.415761240e-33
1.837218914e-04
1.744700419e-04
1.580273629e-04
1.363831658e-04
1.116583945e-04
8.601671916e-05
6.146731589e-05
3.970740906e-05
2.202755404e-05
9.265744676e-06
1.761701760e-06
4.347966290e-14
7.793680959e-17
6.905985797e-19
9.383055286e-21
1.259208672e-22
1.097516621e-24
3.559147802e-27
2.864146943e-30
1.388677039e-33
1.758671905e-04
1.669761200e-04
1.511721108e-04
1.303651678e-04
1.065946512e-04
8.194617358e-05
5.836165299e-05
3.748689933e-05
2.057734310e-05
8.449424907e-06
1.430103972e-06
2.620418086e-14
6.006506964e-17
5.726508447e-19
8.097939132e-21
1.113532399e-22
9.858843890e-25
3.241007336e-27
2.689163628e-30
1.361445977e-33
1.683578333e-04
1.598108099e-04
1.446165797e-04
1.246095480e-04
1.017519611e-04
7.805473407e-05
5.539567566e-05
3.537083347e-05
1.920153485e-05
7.682702236e-06
1.129286154e-06
1.640921423e-14
4.659495191e-17
4.763075355e-19
7.000892276e-21
9.857022918e-23
8.861380037e-25
2.952336471e-27
2.525179763e-30
1.334050700e-33
1.611757882e-04
1.529573112e-04
1.383454316e-04
1.191031717e-04
9.711936127e-05
7.433379366e-05
5.256270681e-05
3.335430020e-05
1.789665259e-05
6.963176852e-06
8.584845471e-07
1.059802924e-14
3.636794716e-17
3.973354518e-19
6.062441997e-21
8.733872024e-23
7.969218697e-25
2.690174018e-27
2.371399962e-30
1.306477211e-33
1.543042665e-04
1.463995492e-04
1.323443341e-04
1.138337244e-04
9.268665346e-05
7.077520555e-05
4.985650781e-05
3.143268496e-05
1.665939605e-05
6.288577263e-06
6.175751170e-07
7.022371861e-15
2.854968890e-17
3.323862923e-19
5.258044648e-21
7.745738003e-23
7.170573555e-25
2.451930451e-27
2.227074782e-30
1.278723357e-33
1.477276394e-04
1.401228503e-04
1.265999153e-04
1.087895980e-04
8.844425903e-05
6.737126884e-05
4.727121276e-05
2.960163291e-05
1.548662872e-05
5.656752911e-06
4.075036747e-07
4.755038237e-15
2.253395605e-17
2.787963436e-19
4.567232306e-21
6.875290892e-23
6.454975539e-25
2.235279875e-27
2.091546620e-30
1.250796104e-33
1.414310842e-04
1.341131355e-04
1.210996045e-04
1.039599064e-04
8.438313773e-05
6.411480771e-05
4.480124096e-05
2.785703082e-05
1.437542901e-05
5.065670517e-06
2.311788971e-07
3.280458024e-15
1.787707865e-17
2.344460242e-19
3.972885799e-21
6.107669440e-23
5.813324213e-25
2.038173131e-27
1.964227198e-30
1.222719475e-33
1.354008174e-04
1.283574036e-04
1.158314866e-04
9.933435867e-05
8.049474577e-05
6.099900971e-05
4.244135666e-05
2.619498934e-05
1.332301182e-05
4.513409809e-06
9.527445941e-08
2.300381779e-15
1.425139438e-17
1.976338115e-19
3.460644005e-21
5.429936665e-23
5.237538211e-25
1.858730532e-27
1.844565634e-30
1.194506593e-33
1.296239588e-04
1.228432372e-04
1.107845488e-04
9.490338675e-05
7.677102791e-05
5.801743423e-05
4.018663919e-05
2.461180791e-05
1.232671509e-05
3.998146069e-06
1.388377520e-08
1.636544395e-15
1.141326578e-17
1.669911407e-19
3.018404388e-21
4.830943793e-23
4.720513620e-25
1.695306116e-27
1.732066564e-30
1.166180994e-33
1.240882022e-04
1.175592485e-04
1.059482207e-04
9.065789355e-05
7.320453465e-05
5.516404218e-05
3.803238513e-05
2.310402408e-05
1.138404086e-05
3.518154613e-06
4.421623511e-11
1.179369176e-15
9.180117874e-18
1.414173436e-19
2.636000433e-21
4.301032618e-23
4.255962407e-25
1.546418304e-27
1.626282968e-30
1.137774700e-33
1.187820661e-04