/*--------------------------------*- C++ -*----------------------------------*\
| =========                 |                                                 |
| \\      /  F ield         | OpenFOAM: The Open Source CFD Toolbox           |
|  \\    /   O peration     | Version:  5.x                                   |
|   \\  /    A nd           | Web:      www.OpenFOAM.org                      |
|    \\/     M anipulation  |                                                 |
\*---------------------------------------------------------------------------*/
FoamFile
{
    version     2.0;
    format      ascii;
    class       volScalarField;
    location    "3.5";
    object       C3H6;
}
// * * * * * * * * * * * * * * * * * * * * * * * * * * * * * * * * * * * * * //

dimensions      [0 0 0 0 0 0 0];

internalField   nonuniform List<scalar>
51080
(
0.000000000e+00
0.000000000e+00
0.000000000e+00
0.000000000e+00
0.000000000e+00
0.000000000e+00
0.000000000e+00
0.000000000e+00
0.000000000e+00
0.000000000e+00
5.641523112e-01
5.322200183e-01
4.984997973e-01
4.560577327e-01
4.009832254e-01
3.337583846e-01
2.553714230e-01
1.687180218e-01
8.208816947e-02
1.944789274e-02
0.000000000e+00
0.000000000e+00
0.000000000e+00
0.000000000e+00
0.000000000e+00
0.000000000e+00
0.000000000e+00
0.000000000e+00
5.818601707e-01
5.556906765e-01
5.229715760e-01
4.882966699e-01
4.442343855e-01
3.865515237e-01
3.177556034e-01
2.390687060e-01
1.546523828e-01
7.595988445e-02
2.227201219e-02
3.807362328e-03
0.000000000e+00
0.000000000e+00
0.000000000e+00
0.000000000e+00
0.000000000e+00
0.000000000e+00
0.000000000e+00
5.742387445e-01
5.479279757e-01
5.146463252e-01
4.794423262e-01
4.352325618e-01
3.777704228e-01
3.103804226e-01
2.345348880e-01
1.541413733e-01
7.970315841e-02
2.745328628e-02
6.079273853e-03
1.230462951e-03
0.000000000e+00
0.000000000e+00
0.000000000e+00
0.000000000e+00
0.000000000e+00
5.868596328e-01
5.667220130e-01
5.413817125e-01
5.101343670e-01
4.726289683e-01
4.292729157e-01
3.728322537e-01
3.075364027e-01
2.352632498e-01
1.584689231e-01
8.687967708e-02
3.400164374e-02
8.950795677e-03
2.078630923e-03
4.794904506e-04
0.000000000e+00
0.000000000e+00
0.000000000e+00
0.000000000e+00
5.775469485e-01
5.581561519e-01
5.334262514e-01
5.025236702e-01
4.645341230e-01
4.247174889e-01
3.703053179e-01
3.077735308e-01
2.390640939e-01
1.655901039e-01
9.609144616e-02
4.199505743e-02
1.279121749e-02
3.260373181e-03
8.523458626e-04
1.968824255e-04
0.000000000e+00
5.885923309e-01
5.798309117e-01
5.666677131e-01
5.486527136e-01
5.251690181e-01
4.954766369e-01
4.587708634e-01
4.204112858e-01
3.693503219e-01
3.100878748e-01
2.449530669e-01
1.746288452e-01
1.069110107e-01
5.150029477e-02
1.793074253e-02
4.977741255e-03
1.393477995e-03
3.810938417e-04
7.848155171e-05
5.694724443e-01
5.639841686e-01
5.534303623e-01
5.376440731e-01
5.161736824e-01
4.884182670e-01
4.537058785e-01
4.173998694e-01
3.696204947e-01
3.139159595e-01
2.523603320e-01
1.851641754e-01
1.191804559e-01
6.262661868e-02
2.470597843e-02
7.526910108e-03
2.202322850e-03
6.611628432e-04
1.745001734e-04
2.791654894e-05
5.430913199e-01
5.366068806e-01
5.241760414e-01
5.056767108e-01
4.806988477e-01
4.487233449e-01
4.150643905e-01
3.709827027e-01
3.188496156e-01
2.608721011e-01
1.968859397e-01
1.327735445e-01
7.543478094e-02
3.342245626e-02
1.131424271e-02
3.447851960e-03
1.089317927e-03
3.307478094e-04
7.803057866e-05
7.620212619e-06
5.143708895e-01
5.068811799e-01
4.925726085e-01
4.714020689e-01
4.430579696e-01
4.128710902e-01
3.733065104e-01
3.252228628e-01
2.694921852e-01
2.092993851e-01
1.474587170e-01
8.988049910e-02
4.430163190e-02
1.683176587e-02
5.409926519e-03
1.757144784e-03
5.783853723e-04
1.683218043e-04
3.235637091e-05
9.806828578e-07
4.838232889e-01
4.753779139e-01
4.592895285e-01
4.356230725e-01
4.097191842e-01
3.751000230e-01
3.310521571e-01
2.793276797e-01
2.223846196e-01
1.630326078e-01
1.058195668e-01
5.742568176e-02
2.457378066e-02
8.522457894e-03
2.826201119e-03
9.713215223e-04
3.196252335e-04
8.470299265e-05
1.146563807e-05
7.686214187e-17
4.519924513e-01
4.428324606e-01
4.252525232e-01
4.047259945e-01
3.754464510e-01
3.359661515e-01
2.887488418e-01
2.357452909e-01
1.792321362e-01
1.230147822e-01
7.270906697e-02
3.491554703e-02
1.337605095e-02
4.578438467e-03
1.604962545e-03
5.668994981e-04
1.799071020e-04
4.093695347e-05
2.879407196e-06
6.137442808e-21
4.180350120e-01
4.102151498e-01
3.968268509e-01
3.732890979e-01
3.386425369e-01
2.967988308e-01
2.484254575e-01
1.954615793e-01
1.410375913e-01
8.986544976e-02
4.800414602e-02
2.062100297e-02
7.478005526e-03
2.651455310e-03
9.708378794e-04
3.425902104e-04
1.014310713e-04
1.827476121e-05
2.194581144e-07
4.006624050e-23
3.944718213e-01
3.854358766e-01
3.668240718e-01
3.386321391e-01
3.025740567e-01
2.595146027e-01
2.108877476e-01
1.592094833e-01
1.083628377e-01
6.366504009e-02
3.076377840e-02
1.219081471e-02
4.419201386e-03
1.640394668e-03
6.143732275e-04
2.114783010e-04
5.640640703e-05
7.047794278e-06
4.443131885e-18
8.514193944e-25
3.664935056e-01
3.551569292e-01
3.342191629e-01
3.049487147e-01
2.679909678e-01
2.245562156e-01
1.766492552e-01
1.274184077e-01
8.136751459e-02
4.395161419e-02
1.946205857e-02
7.425413941e-03
2.775253113e-03
1.068499482e-03
4.014926830e-04
1.320082632e-04
3.041673704e-05
2.013608838e-06
7.121358954e-21
3.395637979e-26
3.350189962e-01
3.235542944e-01
3.023534133e-01
2.725707119e-01
2.353298604e-01
1.922983515e-01
1.460287742e-01
1.002494449e-01
5.984887147e-02
2.982508521e-02
1.240620153e-02
4.735395836e-03
1.838329349e-03
7.236892429e-04
2.684821941e-04
8.264105225e-05
1.554980526e-05
2.290899270e-07
1.223365282e-22
2.009711965e-27
3.047174312e-01
2.931380838e-01
2.717642206e-01
2.418710163e-01
2.049147371e-01
1.629960709e-01
1.191721461e-01
7.762865238e-02
4.330257969e-02
2.012993315e-02
8.112811512e-03
3.169692187e-03
1.271371196e-03
5.049771319e-04
1.825056707e-04
5.149288908e-05
7.275155066e-06
8.355392461e-17
5.189726135e-24
1.553791632e-28
2.757068554e-01
2.640971165e-01
2.427498047e-01
2.131180842e-01
1.769623567e-01
1.367832024e-01
9.607031511e-02
5.928303505e-02
3.101112477e-02
1.369156642e-02
5.497774871e-03
2.215890372e-03
9.098415081e-04
3.606118151e-04
1.254809559e-04
3.168264318e-05
2.914142300e-06
9.708644116e-20
3.737725311e-25
1.453946950e-29
2.481321525e-01
2.366018214e-01
2.155052700e-01
1.864854963e-01
1.515920283e-01
1.136836257e-01
7.658099439e-02
4.478463153e-02
2.214981675e-02
9.491735773e-03
3.869448449e-03
1.606604824e-03
6.691005818e-04
2.622681352e-04
8.690701289e-05
1.907244593e-05
8.458724408e-07
2.309869131e-21
3.851474458e-26
1.570791910e-30
2.221207293e-01
2.107838516e-01
1.901577117e-01
1.620707048e-01
1.288401797e-01
9.362736602e-02
6.045361539e-02
3.360337374e-02
1.590786342e-02
6.754774161e-03
2.821006295e-03
1.200223322e-03
5.030224114e-04
1.935555412e-04
6.042025436e-05
1.109881895e-05
8.344447888e-08
1.386611826e-22
5.156302392e-27
1.903362339e-31
1.977686471e-01
1.867338022e-01
1.667808243e-01
1.399097896e-01
1.086749139e-01
7.646775581e-02
4.735691903e-02
2.516354821e-02
1.157265726e-02
4.947105801e-03
2.120723407e-03
9.189106761e-04
3.850793108e-04
1.445418400e-04
4.202882561e-05
6.135427796e-06
1.468840986e-16
1.399734846e-23
8.444792159e-28
2.543071163e-32
1.751389017e-01
1.645044161e-01
1.454038921e-01
1.199886824e-01
9.100870373e-02
6.199801975e-02
3.690878625e-02
1.890022569e-02
8.572635932e-03
3.725825485e-03
1.636268452e-03
7.179657632e-04
2.992803391e-04
1.089748171e-04
2.915707174e-05
3.131075997e-06
5.285492354e-19
2.004489825e-24
1.625730717e-28
3.713933627e-33
1.542633782e-01
1.441150161e-01
1.260192366e-01
1.022524252e-01
7.570960332e-02
4.996810094e-02
2.870598390e-02
1.430722299e-02
6.483913074e-03
2.878209227e-03
1.290368498e-03
5.705780685e-04
2.355880724e-04
8.279152709e-05
2.010363237e-05
1.396744381e-06
2.316226175e-20
3.711471403e-25
3.579381439e-29
5.914504399e-34
1.351464638e-01
1.255559887e-01
1.085879331e-01
8.661264056e-02
6.261140002e-02
4.010083507e-02
2.234956982e-02
1.095772498e-02
5.009892046e-03
2.273519291e-03
1.036477827e-03
4.600202530e-04
1.874831642e-04
6.328043171e-05
1.372255535e-05
4.777025910e-07
2.236692770e-21
8.386304736e-26
8.839968196e-30
1.030305075e-34
1.177683839e-01
1.087927368e-01
9.304499698e-02
7.295390140e-02
5.152305595e-02
3.210760679e-02
1.747407576e-02
8.513032824e-03
3.950662918e-03
1.830725442e-03
8.456103449e-04
3.754799884e-04
1.506051411e-04
4.859011357e-05
9.229042757e-06
7.698733338e-08
3.355622474e-22
2.223860097e-26
2.414804383e-30
1.978180761e-35
1.020884522e-01
9.376941010e-02
7.930369297e-02
6.113979430e-02
4.223771316e-02
2.570188315e-02
1.375863684e-02
6.717230789e-03
3.173984706e-03
1.498682931e-03
6.991219658e-04
3.097521781e-04
1.219633219e-04
3.743180216e-05
6.078097244e-06
4.981093125e-14
6.767442072e-23
6.730713200e-27
7.220217545e-31
4.227846962e-36
8.804778081e-02
8.041188188e-02
6.725940324e-02
5.101829703e-02
3.454141104e-02
2.061292730e-02
1.093399437e-02
5.383936661e-03
2.592721823e-03
1.244345668e-03
5.846554372e-04
2.579043231e-04
9.946153894e-05
2.889293874e-05
3.886723772e-06
1.230761697e-17
1.696688163e-23
2.277518372e-27
2.344047340e-31
1.014892017e-36
7.557187616e-02
6.863077488e-02
5.679343089e-02
4.242722148e-02
2.822101550e-02
1.659723600e-02
8.783168695e-03
4.380668897e-03
2.149085969e-03
1.045832295e-03
4.937959762e-04
2.164790298e-04
8.160254410e-05
2.231769623e-05
2.383126285e-06
6.152776024e-19
5.036690285e-24
8.480836073e-28
8.209939879e-32
2.749704613e-37
6.457295725e-02
5.832407204e-02
4.777655802e-02
3.519960237e-02
2.307027956e-02
1.344131828e-02
7.137125187e-03
3.614478029e-03
1.804262378e-03
8.882961337e-04
4.206733023e-04
1.830035387e-04
6.729896196e-05
1.722855016e-05
1.372976084e-06
7.580250316e-20
1.712642593e-24
3.432298180e-28
3.085798940e-32
8.403314592e-38
5.495251699e-02
4.938007208e-02
4.007282207e-02
2.916867552e-02
1.890015660e-02
1.096433380e-02
5.867552115e-03
3.020395119e-03
1.531747493e-03
7.614321331e-04
3.611013463e-04
1.556762468e-04
5.574921644e-05
1.327365275e-05
7.167026293e-07
1.445270335e-20
6.513045640e-25
1.494703181e-28
1.238997923e-32
2.881352766e-38
4.660365556e-02
4.168020337e-02
3.354326401e-02
2.417109248e-02
1.553996337e-02
9.017590698e-03
4.878813656e-03
2.552870020e-03
1.313118065e-03
6.579314905e-04
3.120386080e-04
1.331633069e-04
4.635447368e-05
1.019103525e-05
3.141572000e-07
3.622251237e-21
2.720751163e-25
6.946613779e-29
5.292884420e-33
1.099310213e-38
3.941388026e-02
3.510211964e-02
2.804932002e-02
2.005525113e-02
1.283989778e-02
7.481881187e-03
4.100416008e-03
2.179717362e-03
1.135335341e-03
5.725087893e-04
2.712353512e-04
1.144629298e-04
3.866207235e-05
7.783756510e-06
9.435112488e-08
1.101384380e-21
1.231185171e-25
3.421756428e-29
2.396905183e-33
4.623012777e-39
3.326773458e-02
2.952280293e-02
2.345557932e-02
1.668191985e-02
1.067190850e-02
6.263554356e-03
3.480646887e-03
1.877946757e-03
9.890048642e-04
5.012744900e-04
2.370022590e-04
9.881269386e-05
3.232610695e-05
5.902507809e-06
7.737264792e-09
3.876453601e-22
5.968506273e-26
1.775992756e-29
1.146726815e-33
2.122674859e-39
2.804948232e-02
2.481992495e-02
1.963618106e-02
1.392623309e-02
8.929037486e-03
5.290129825e-03
2.981569642e-03
1.630929584e-03
8.672461092e-04
4.413183289e-04
2.080528373e-04
8.562557875e-05
2.707953259e-05
4.433149846e-06
3.612157885e-15
1.531594382e-22
3.071840809e-26
9.663788367e-30
5.777139052e-34
1.054619521e-39
2.364509596e-02
2.087845027e-02
1.647468687e-02
1.167884537e-02
7.523785289e-03
4.506090425e-03
2.575241722e-03
1.426479960e-03
7.649369175e-04
3.904317280e-04
1.833947708e-04
7.444471029e-05
2.271437611e-05
3.287823203e-06
4.058210359e-17
6.648617323e-23
1.666067090e-26
5.488379360e-30
3.055303216e-34
5.623590074e-40
1.994773499e-02
1.759073626e-02
1.386590832e-02
9.846064136e-03
6.385734309e-03
3.869143816e-03
2.240942757e-03
1.255547200e-03
6.782099138e-04
3.469159875e-04
1.622542105e-04
6.491094442e-05
1.906719898e-05
2.398461270e-06
4.226910874e-18
3.121125101e-23
9.463313109e-27
3.240733658e-30
1.691215658e-34
3.195282891e-40
1.685749124e-02
1.485810686e-02
1.171686981e-02
8.349157647e-03
5.458949207e-03
3.347128618e-03
1.963187332e-03
1.111318085e-03
6.041050682e-04
3.094475606e-04
1.440206096e-04
5.673943553e-05
1.600861083e-05
1.712013571e-06
8.297643780e-19
1.565363122e-23
5.599730709e-27
1.982627914e-30
9.770150373e-35
1.922303639e-40
1.428304245e-02
1.259204807e-02
9.947045353e-03
7.123085124e-03
4.699398081e-03
2.915566976e-03
1.730288848e-03
9.886018507e-04
5.403270989e-04
2.769848737e-04
1.282081963e-04
4.970236182e-05
1.343538151e-05
1.186940872e-06
2.248580809e-19
8.307859176e-24
3.436394852e-27
1.252751345e-30
5.873287849e-35
1.217028320e-40
1.214257323e-02
1.071474529e-02
8.487956089e-03
6.114833778e-03
4.072624928e-03
2.555749204e-03
1.533340523e-03
8.833950232e-04
4.850768870e-04
2.486993468e-04
1.144268066e-04
4.361601694e-05
1.126464572e-05
7.905962933e-07
7.462926867e-20
4.630169210e-24
2.178545806e-27
8.152657771e-31
3.664005868e-35
8.067006731e-41
1.036425408e-02
9.159033587e-03
7.282282680e-03
5.281668438e-03
3.551730799e-03
2.253313586e-03
1.365487758e-03
7.925740151e-04
4.369283264e-04
2.239250623e-04
1.023603436e-04
3.833123898e-05
9.429357933e-06
4.972770627e-07
2.856296481e-20
2.692824539e-24
1.421986663e-27
5.450635870e-31
2.365863470e-35
5.573532810e-41
8.886112547e-03
7.867888748e-03
6.282696416e-03
4.589397823e-03
3.115727164e-03
1.997150858e-03
1.221399159e-03
7.136772529e-04
3.947403576e-04
2.021231626e-04
9.175092126e-05
3.372601638e-05
7.874999200e-06
2.867663111e-07
1.216941956e-20
1.625750149e-24
9.528328405e-28
3.735186654e-31
1.577211185e-35
3.997314487e-41
7.655490684e-03
6.793587732e-03
5.450524071e-03
4.010795346e-03
2.748201689e-03
1.778613141e-03
1.096890611e-03
6.447430547e-04
3.575910383e-04
1.828533105e-04
8.238658518e-05
2.969998745e-05
6.556962319e-06
1.432490484e-07
5.641367975e-21
1.014447801e-24
6.537472245e-28
2.618128953e-31
1.083005063e-35
2.965396736e-41
6.628293310e-03
5.896645842e-03
4.754412343e-03
3.524240294e-03
2.436277463e-03
1.590916418e-03
9.886467833e-04
5.841961413e-04
3.247290480e-04
1.657532022e-04
7.409184808e-05
2.617000736e-05
5.438541807e-06
5.444957678e-08
2.800608321e-21
6.517935179e-25
4.582168682e-28
1.873372454e-31
7.640308533e-36
2.266785857e-41
5.767963718e-03
5.144694761e-03
4.169090762e-03
3.112566037e-03
2.169803880e-03
1.428694628e-03
8.940152843e-04
5.307589119e-04
2.955386112e-04
1.505225780e-04
6.672070034e-05
2.306687306e-05
4.489392812e-06
1.051610782e-08
1.471826633e-21
4.298491209e-25
3.274348256e-28
1.366021753e-31
5.525546549e-36
1.779988773e-41
5.044474912e-03
4.511383880e-03
3.674238501e-03
2.762121960e-03
1.940739446e-03
1.287671527e-03
8.108590480e-04
4.833871221e-04
2.695094124e-04
1.369112114e-04
6.015080624e-05
2.033262307e-05
3.684286623e-06
4.282686531e-11
8.116676573e-22
2.901728251e-25
2.381225127e-28
1.013479552e-31
4.088793100e-36
1.432564513e-41
4.433314396e-03
3.975344923e-03
3.253549700e-03
2.462027135e-03
1.742671632e-03
1.164414104e-03
7.374400471e-04
4.412208449e-04
2.462169125e-04
1.247090180e-04
5.427905632e-05
1.791847549e-05
3.002155447e-06
1.389863917e-15
4.664953147e-22
2.000315132e-25
1.759555162e-28
7.639567586e-32
3.089826277e-36
1.178693718e-41
3.914547015e-03
3.519304012e-03
2.893923874e-03
2.203574553e-03
1.570458765e-03
1.056142549e-03
6.723342298e-04
4.035468293e-04
2.253052722e-04
1.137384884e-04
4.901819940e-05
1.578318719e-05
2.425336878e-06
9.186593358e-17
2.778978239e-22
1.405211126e-25
1.319197557e-28
5.843055840e-32
2.380165332e-36
9.892064961e-42
3.472007860e-03
3.129294117e-03
2.584820861e-03
1.979764716e-03
1.419948006e-03
9.605921288e-04
6.143676422e-04
3.697696256e-04
2.064745803e-04
1.038493573e-04
4.429397060e-05
1.389167012e-05
1.938932498e-06
1.692962435e-17
1.708222665e-22
1.004137760e-25
1.002216669e-28
4.528955636e-32
1.865866183e-36
8.450592134e-42
3.092584797e-03
2.794023996e-03
2.317732510e-03
1.784945002e-03
1.287766324e-03
8.759048591e-04
5.625645949e-04
3.393891193e-04
1.894705799e-04
9.491316958e-05
4.004288605e-05
1.221398361e-05
1.530365766e-06
4.697977981e-18
1.079513954e-22
7.287153078e-26
7.706566381e-29
3.553559018e-32
1.486275254e-36
7.335502730e-42
2.765639058e-03
2.504341597e-03
2.085772968e-03
1.614524490e-03
1.171154584e-03
8.005449789e-04
5.161099955e-04
3.119821719e-04
1.740762353e-04
8.681990527e-05
3.621036993e-05
1.072448334e-05
1.188960394e-06
1.635683902e-18
6.991757598e-23
5.363186342e-26
5.991828503e-29
2.819722483e-32
1.201346940e-36
6.459209352e-42
2.482523098e-03
2.252809452e-03
1.883336976e-03
1.464756055e-03
1.067843229e-03
7.332351652e-04
4.743177969e-04
2.871899473e-04
1.601059875e-04
7.947491974e-05
3.274937724e-05
9.401050215e-06
9.056416041e-07
6.596530599e-19
4.628888199e-23
3.997934560e-26
4.705773668e-29
2.260394271e-32
9.839060429e-37
5.762244749e-42
2.236187642e-03
2.033362927e-03
1.705848659e-03
1.332560896e-03
9.759538785e-04
6.729080470e-04
4.366082254e-04
2.647053698e-04
1.474000752e-04
7.279633723e-05
2.961914705e-05
8.224600125e-06
6.726658034e-07
2.953202590e-19
3.125537237e-23
3.015144711e-26
3.729964385e-29
1.828981701e-32
8.153974756e-37
5.196499808e-42
2.020864886e-03
1.841037795e-03
1.549546952e-03
1.215399528e-03
8.939224880e-04
6.186649515e-04
4.024884750e-04
2.442653843e-04
1.358202504e-04
6.671295472e-05
2.678429292e-05
7.178560356e-06
4.834426690e-07
1.430643660e-19
2.148300960e-23
2.298341870e-26
2.981715236e-29
1.492738612e-32
6.832136466e-37
4.735627078e-42
1.831818585e-03
1.671749501e-03
1.411332668e-03
1.111161275e-03
8.204396141e-04
5.697461906e-04
3.715371680e-04
2.256429226e-04
1.252467321e-04
6.116288057e-05
2.421385908e-05
6.248521280e-06
3.323510011e-07
7.375202529e-20
1.500580186e-23
1.769173944e-26
2.402208766e-29
1.228012708e-32
5.782232905e-37
4.356038690e-42
1.665143146e-03
1.522126415e-03
1.288632939e-03
1.018087563e-03
7.544019861e-04
5.255055894e-04
3.433928150e-04
2.086414614e-04
1.155750225e-04
5.609189242e-05
2.188076658e-05
5.421873420e-06
2.146191669e-07
3.999274591e-20
1.063615246e-23
1.374121611e-26
1.949246812e-29
1.017597702e-32
4.938141698e-37
4.039798749e-42
1.517604002e-03
1.389368632e-03
1.179304902e-03
9.347003203e-04
6.948774821e-04
4.853918464e-04
3.177433173e-04
1.930901110e-04
1.067137055e-04
5.145236916e-05
1.976124427e-05
4.687571176e-06
1.262166720e-07
2.261954413e-20
7.640182219e-24
1.076136909e-26
1.592142234e-29
8.488651246e-33
4.251920939e-37
3.773866586e-42
1.386510710e-03
1.271141552e-03
1.081553883e-03
8.597554683e-04
6.410726262e-04
4.489306559e-04
2.943187154e-04
1.788398819e-04
9.858255469e-05
4.720241605e-05
1.783430300e-05
4.035895809e-06
6.374518278e-08
1.325920908e-20
5.555575090e-24
8.492085271e-27
1.308361108e-29
7.124405504e-33
3.688332082e-37
3.548278064e-42
1.269611940e-03
1.165489991e-03
9.938679561e-04
7.921973670e-04
5.923093401e-04
4.157140421e-04
2.728840651e-04
1.657597741e-04
9.111086134e-05
4.330494536e-05
1.608135753e-05
3.458276700e-06
2.425532919e-08
8.015556997e-21
4.085259954e-24
6.748520452e-27
1.081184512e-29
6.012971815e-33
3.221013101e-37
3.355343176e-42
1.165019096e-03
1.070767211e-03
9.149692107e-04
7.311282180e-04
5.480069426e-04
3.853886036e-04
2.532344025e-04
1.537354124e-04
8.423633550e-05
3.972714601e-05
1.448599567e-05
2.947131998e-06
4.704598305e-09
4.977680586e-21
3.035186966e-24
5.397843132e-27
8.980573152e-30
5.100994533e-33
2.830056328e-37
3.189007748e-42
1.071137931e-03
9.855806422e-04
8.437732472e-04
6.757805036e-04
5.076635410e-04
3.576467793e-04
2.351903579e-04
1.426651995e-04
7.790350755e-05
3.643981760e-05
1.303353568e-05
2.495736149e-06
3.489600595e-11
3.165263593e-21
2.276556153e-24
4.343494494e-27
7.495011183e-30
4.347739223e-33
2.500300115e-37
3.044514047e-42
9.866188440e-04
9.087483602e-04
7.793527898e-04
6.254942723e-04
4.708456921e-04
3.322211723e-04
2.185937828e-04
1.324598040e-04
7.206325078e-05
3.341692370e-05
1.171095224e-05
2.098112329e-06
4.571235986e-15
2.055620218e-21
1.722616573e-24
3.514593489e-27
6.282658176e-30
3.721723408e-33
2.219981048e-37
2.918002835e-42
9.103129831e-04
8.392623743e-04
7.209155097e-04
5.797014547e-04
4.371767110e-04
3.088770368e-04
2.033058394e-04
1.230395541e-04
6.667170862e-05
3.063523992e-05
1.050655340e-05
1.748928915e-06
3.177575812e-16
1.360405767e-21
1.314107835e-24
2.858615501e-27
5.287807524e-30
3.198461680e-33
1.979983145e-37
2.806398624e-42
8.412372908e-04
7.762575890e-04
6.677771493e-04
5.379098385e-04
4.063283564e-04
2.874083729e-04
1.892032177e-04
1.143339306e-04
6.168973909e-05
2.807394739e-05
9.409886922e-06
1.443435499e-06
6.261011030e-17
9.157587627e-22
1.010074656e-24
2.336251191e-27
4.467188670e-30
2.758749973e-33
1.773120255e-37
2.707178871e-42
7.785502723e-04
7.189918636e-04
6.193488212e-04
4.996911239e-04
3.780127721e-04
2.676337015e-04
1.761768900e-04
1.062797285e-04
5.708220536e-05
2.571427475e-05
8.411539771e-06
1.177373503e-06
1.851878047e-17
6.260237781e-22
7.818599589e-25
1.917883186e-27
3.787028192e-30
2.387395154e-33
1.593705731e-37
2.618245561e-42
7.215259161e-04
6.668227418e-04
5.751188956e-04
4.646732083e-04
3.519783853e-04
2.493925096e-04
1.641296107e-04
9.882064590e-05
5.281764938e-05
2.353944721e-05
7.503032705e-06
9.469368448e-07
6.828284868e-18
4.340116286e-22
6.091814966e-25
1.581007169e-27
3.220732522e-30
2.072321079e-33
1.437175921e-37
2.537909921e-42
6.695362592e-04
6.191948123e-04
5.346419690e-04
4.325293823e-04
3.280028920e-04
2.325426478e-04
1.529749157e-04
9.190600565e-05
4.886764784e-05
2.153421546e-05
6.676732539e-06
7.487064650e-07
2.896702037e-18
3.047834503e-22
4.775478789e-25
1.308370611e-27
2.747281597e-30
1.803855787e-33
1.299875572e-37
2.464745515e-42
6.220371590e-04
5.756239715e-04
4.975296264e-04
4.029731463e-04
3.058899364e-04
2.169578315e-04
1.426351750e-04
8.549040224e-05
4.520666722e-05
1.968488241e-05
5.925721569e-06
5.796276582e-07
1.355384763e-18
2.165752690e-22
3.765007436e-25
1.086676938e-27
2.349882851e-30
1.574176755e-33
1.178823762e-37
2.397545382e-42
5.785538150e-04
5.356880545e-04
4.634411873e-04
3.757520052e-04
2.854657169e-04
2.025252355e-04
1.330410300e-04
7.953288455e-05
4.181154398e-05
1.797898790e-05
5.243732436e-06
4.369657033e-07
6.822441841e-19
1.555793434e-22
2.984293342e-25
9.056133300e-28
2.015105100e-30
1.376947190e-33
1.071613126e-37
2.335337202e-42
5.386722966e-04
4.990177857e-04
4.320773304e-04
3.506438103e-04
2.665761459e-04
1.891443325e-04
1.241301695e-04
7.399655327e-05
3.866133811e-05
1.640523578e-05
4.625066625e-06
3.182792070e-07
3.635186834e-19
1.128930389e-22
2.377351632e-25
7.571148467e-28
1.732120211e-30
1.207003770e-33
9.762427465e-38
2.277232564e-42
5.020286034e-04
4.652882981e-04
4.031745130e-04
3.274505934e-04
2.490834460e-04
1.767248198e-04
1.158463979e-04
6.884791373e-05
3.573707906e-05
1.495336733e-05
4.064555073e-06
2.214003016e-07
2.027817985e-19
8.268691227e-23
1.902795204e-25
6.348498211e-28
1.492141728e-30
1.060093712e-33
8.910587921e-38
2.222534971e-42
4.683035094e-04
4.342134129e-04
3.764993567e-04
3.059971578e-04
2.328648672e-04
1.651858881e-04
1.081391284e-04
6.405676975e-05
3.302143583e-05
1.361400927e-05
3.557473117e-06
1.444151421e-07
1.174919926e-19
6.109046203e-23
1.529727887e-25
5.338095262e-28
1.288032850e-30
9.327177464e-34
8.146955265e-38
2.170659324e-42
4.372151711e-04
4.055403645e-04
3.518446945e-04
2.861275582e-04
2.178108451e-04
1.544547394e-04
1.009624724e-04
5.959557506e-05
3.049867984e-05
1.237862903e-05
3.099513543e-06
8.563788394e-08
7.029108665e-20
4.550185046e-23
1.234948234e-25
4.500277127e-28
1.113947503e-30
8.219821225e-34
7.460023953e-38
2.121086297e-42
4.085142811e-04
3.790451786e-04
3.290270500e-04
2.677020987e-04
2.038224286e-04
1.444657849e-04
9.427496346e-05
5.543938274e-05
2.815449787e-05
1.123942652e-05
2.686739183e-06
4.356508442e-08
4.322559683e-20
3.414830300e-23
1.000899807e-25
3.803251792e-28
9.650871563e-31
7.254610897e-34
6.840180240e-38
2.073383126e-42
3.819792539e-04
3.545288342e-04
3.078825175e-04
2.505963105e-04
1.908112848e-04
1.351595363e-04
8.803891156e-05
5.156535744e-05
2.597571788e-05
1.018924856e-05
2.315547162e-06
1.674459528e-08
2.722612082e-20
2.580999224e-23
8.142258383e-26
3.221606220e-28
8.374763878e-31
6.411382586e-34
6.279301971e-38
2.027172446e-42
3.574139105e-04
3.318139209e-04
2.882643802e-04
2.346983945e-04
1.786975146e-04
1.264824460e-04
8.222019004e-05
4.795279568e-05
2.395035745e-05
9.221562160e-06
1.982628566e-06
3.369715460e-09
1.751405708e-20
1.963771372e-23
6.646944296e-26
2.734833419e-28
7.278425143e-31
5.673061837e-34
5.770420889e-38
1.982147538e-42
3.346427469e-04
3.107420837e-04
2.700417503e-04
2.199074409e-04
1.674089684e-04
1.183859054e-04
7.678759401e-05
4.458265639e-05
2.206743289e-05
8.330326784e-06
1.684948691e-06
4.119943979e-11
1.147983733e-20
1.503520288e-23
5.444293260e-26
2.326366517e-28
6.334464537e-31
5.025304793e-34
5.307543328e-38
1.938033491e-42
3.135090198e-04
2.911718799e-04
2.530970173e-04
2.061331104e-04
1.568804077e-04
1.108255524e-04
7.171265746e-05
4.143757824e-05
2.031679846e-05
7.510022609e-06
1.419736105e-06
9.082545652e-15
7.652207744e-21
1.157927586e-23
4.473274404e-26
1.982707836e-28
5.520146283e-31
4.455991356e-34
4.885636531e-38
1.894604467e-42
2.938725697e-04
2.729757400e-04
2.373241603e-04
1.932935944e-04
1.470528275e-04
1.037611932e-04
6.696943277e-05
3.850159469e-05
1.868921972e-05
6.755552603e-06
1.184418116e-06
6.073546045e-16
5.178900582e-21
8.967363072e-24
3.686410729e-26
1.692874586e-28
4.816317115e-31
3.954719923e-34
4.500306264e-38
1.851709187e-42
2.756072063e-04
2.560396150e-04
2.226278738e-04
1.813149147e-04
1.378726230e-04
9.715626762e-05
6.253416554e-05
3.576009062e-05
1.717611547e-05
6.062219165e-06
9.766510355e-07
1.207241332e-16
3.553714128e-21
6.981114051e-24
3.046548741e-26
1.447890364e-28
4.206935755e-31
3.512660121e-34
4.147753948e-38
1.809174256e-42
2.585996516e-04
2.402605623e-04
2.089218931e-04
1.701300338e-04
1.292908694e-04
9.097713407e-05
5.838506642e-05
3.319961105e-05
1.576961252e-05
5.425688859e-06
7.942708926e-07
3.635379384e-17
2.469469773e-21
5.461841342e-24
2.524526235e-26
1.240357078e-28
3.678492571e-31
3.122328861e-34
3.824654747e-38
1.766908127e-42
2.427475699e-04
2.255455907e-04
1.961283593e-04
1.596782331e-04
1.212632657e-04
8.519324470e-05
5.450219041e-05
3.080780916e-05
1.446248414e-05
4.841951613e-06
6.352953176e-07
1.367245601e-17
1.736023598e-21
4.293311762e-24
2.097293865e-26
1.064191446e-28
3.219529629e-31
2.777150171e-34
3.528166407e-38
1.724831095e-42
2.279589179e-04
2.118105672e-04
1.841766200e-04
1.499040792e-04
1.137492301e-04
7.977658009e-05
5.086712921e-05
2.857325309e-05
1.324797864e-05
4.307293034e-06
4.979050469e-07
5.913897223e-18
1.233509981e-21
3.389866831e-24
1.746598529e-26
9.143630990e-29
2.820340312e-31
2.471574768e-34
3.255754934e-38
1.682876398e-42
2.141498795e-04
1.989793760e-04
1.730023206e-04
1.407572734e-04
1.067115892e-04
7.470139028e-05
4.746303179e-05
2.648541894e-05
1.211990007e-05
3.818287627e-06
3.804359635e-07
2.818292009e-18
8.851618524e-22
2.687864399e-24
1.457903679e-26
7.866944145e-29
2.472700184e-31
2.200758845e-34
3.005140670e-38
1.640994821e-42
2.012446950e-04
1.869828162e-04
1.625472210e-04
1.321919506e-04
1.001165872e-04
6.994414264e-05
4.427431946e-05
2.453458480e-05
1.107249843e-05
3.371744688e-06
2.813767979e-07
1.442796136e-18
6.410517846e-22
2.139841579e-24
1.219612475e-26
6.777279570e-29
2.169567086e-31
1.960505561e-34
2.774384658e-38
1.599136684e-42
1.891748152e-04
1.757579385e-04
1.527581504e-04
1.241659892e-04
9.393313684e-05
6.548306101e-05
4.128668615e-05
2.271176565e-05
1.010044390e-05
2.964705565e-06
1.993568764e-07
7.807187987e-19
4.682488930e-22
1.710080780e-24
1.022412658e-26
5.845619974e-29
1.904947215e-31
1.747182952e-34
2.561691868e-38
1.557283290e-42
1.778774835e-04
1.652477169e-04
1.435864650e-04
1.166410276e-04
8.813261767e-05
6.129822527e-05
3.848684289e-05
2.100862552e-05
9.198799239e-06
2.594423142e-06
1.331417322e-07
4.416459984e-19
3.447733549e-22
1.371622220e-24
8.588173843e-27
5.047864674e-29
1.673689996e-31
1.557595785e-34
2.365514303e-38
1.515421338e-42
1.672956353e-04
1.553995916e-04
1.349877601e-04
1.095819178e-04
8.268885783e-05
5.737121436e-05
3.586255125e-05
1.941745037e-05
8.362966158e-06
2.258343289e-06
8.162318194e-08
2.591387701e-19
2.557672098e-22
1.103985999e-24
7.227786663e-27
4.363736894e-29
1.471399502e-31
1.388987070e-34
2.184427009e-38
1.473556773e-42
1.573773375e-04
1.461661134e-04
1.269214908e-04
1.029563408e-04
7.757777707e-05
5.368499461e-05
3.340249464e-05
1.793108493e-05
7.588659010e-06
1.954088526e-06
4.378595006e-08
1.567976685e-19
1.910766335e-22
8.915190897e-25
6.094000516e-27
3.776205858e-29
1.294267266e-31
1.238931623e-34
2.017177004e-38
1.431708918e-42
1.480748494e-04
1.375034143e-04
1.193504561e-04
9.673464053e-05
7.277716294e-05
5.022391330e-05
3.109614957e-05
1.654287997e-05
6.871916475e-06
1.679447330e-06
1.862116561e-08
9.740376793e-20
1.436959913e-22
7.222318667e-25
5.147043737e-27
3.270990714e-29
1.139039465e-31
1.105322681e-34
1.862647139e-38
1.389922981e-42
1.393446560e-04
1.293715912e-04
1.122403750e-04
9.088946367e-05
6.826648409e-05
4.697344141e-05
2.893378300e-05
1.524665546e-05
6.209036894e-06
1.432361944e-06
4.864718971e-09
6.190615001e-20
1.087407026e-22
5.868663837e-25
4.354508676e-27
2.835982741e-29
1.002893508e-31
9.862786268e-35
1.719810439e-38
1.348227336e-42
1.311469550e-04
1.217337558e-04
1.055599847e-04
8.539575834e-05
6.402678610e-05
4.392011546e-05
2.690638205e-05
1.403664276e-05
5.596555018e-06
1.210912858e-06
2.645484653e-10
4.014296091e-20
8.277548725e-23
4.782522126e-25
3.689876047e-27
2.460979277e-29
8.833969785e-32
8.801704042e-35
1.587745933e-38
1.306665229e-42
1.234449246e-04
1.145564085e-04
9.928025311e-05
8.023032034e-05
6.004070475e-05
4.105150002e-05
2.500552762e-05
1.290750197e-05
5.031252554e-06
1.013312719e-06
4.894240029e-14
2.649884506e-20
6.336240303e-23
3.908256935e-25
3.131472604e-27
2.137346175e-29
7.784418127e-32
7.855594040e-35
1.465625187e-38
1.265291783e-42
1.162048542e-04