/*--------------------------------*- C++ -*----------------------------------*\
| =========                 |                                                 |
| \\      /  F ield         | OpenFOAM: The Open Source CFD Toolbox           |
|  \\    /   O peration     | Version:  5.x                                   |
|   \\  /    A nd           | Web:      www.OpenFOAM.org                      |
|    \\/     M anipulation  |                                                 |
\*---------------------------------------------------------------------------*/
FoamFile
{
    version     2.0;
    format      ascii;
    class       volScalarField;
    location    "3.5";
    object       CH;
}
// * * * * * * * * * * * * * * * * * * * * * * * * * * * * * * * * * * * * * //

dimensions      [0 0 0 0 0 0 0];

internalField   nonuniform List<scalar>
51080
(
0.000000000e+00
0.000000000e+00
0.000000000e+00
0.000000000e+00
0.000000000e+00
0.000000000e+00
0.000000000e+00
0.000000000e+00
0.000000000e+00
0.000000000e+00
6.650045560e-31
1.434106546e-30
3.230775443e-30
9.016570200e-30
3.503647261e-29
1.993543859e-28
1.859098843e-27
3.610680632e-26
2.576618256e-24
2.027324601e-21
0.000000000e+00
0.000000000e+00
0.000000000e+00
0.000000000e+00
0.000000000e+00
0.000000000e+00
0.000000000e+00
0.000000000e+00
4.229863987e-31
7.954148667e-31
1.741880830e-30
4.006737355e-30
1.164003657e-29
4.869288002e-29
2.966827308e-28
2.973417352e-27
6.125126860e-26
3.745585868e-24
1.122124437e-21
5.455647728e-19
0.000000000e+00
0.000000000e+00
0.000000000e+00
0.000000000e+00
0.000000000e+00
0.000000000e+00
0.000000000e+00
4.996363379e-31
9.394017987e-31
2.079571852e-30
4.839325593e-30
1.413913394e-29
5.930094658e-29
3.539418201e-28
3.345121839e-27
6.095656201e-26
2.830554799e-24
4.539348103e-22
1.278528893e-19
8.766088577e-18
0.000000000e+00
0.000000000e+00
0.000000000e+00
0.000000000e+00
0.000000000e+00
3.637089848e-31
5.904022246e-31
1.081966803e-30
2.279234181e-30
5.594955729e-30
1.604245432e-29
6.593236756e-29
3.752190641e-28
3.202652198e-27
5.001712806e-26
1.746452077e-24
1.749045501e-22
3.438911249e-20
2.614071539e-18
4.769247992e-17
0.000000000e+00
0.000000000e+00
0.000000000e+00
0.000000000e+00
4.508254235e-31
7.167875643e-31
1.291677644e-30
2.695331963e-30
6.695642707e-30
1.766395610e-29
6.923167616e-29
3.667761971e-28
2.793065845e-27
3.698767751e-26
9.876718385e-25
6.597014727e-23
9.356920251e-21
7.971213442e-19
1.754214262e-17
1.581286850e-16
0.000000000e+00
3.437736906e-31
4.240840496e-31
5.807089195e-31
8.915167925e-31
1.557130857e-30
3.155068997e-30
7.605791130e-30
1.939630838e-29
7.005651518e-29
3.395654644e-28
2.291332647e-27
2.568802813e-26
5.335042194e-25
2.479783661e-23
2.520792047e-21
2.293478165e-19
6.421560069e-18
6.550375350e-17
4.067564188e-16
5.407979506e-31
6.161651972e-31
7.915985672e-31
1.150884272e-30
1.914518894e-30
3.704160147e-30
8.520335702e-30
2.069133493e-29
6.887614691e-29
3.023757739e-28
1.802689631e-27
1.711411256e-26
2.804229821e-25
9.349425722e-24
6.739113209e-22
6.013569713e-20
2.189472083e-18
2.710069235e-17
1.774247975e-16
9.128972156e-16
1.007954692e-30
1.175015655e-30
1.576705376e-30
2.443894404e-30
4.428047718e-30
9.548898380e-30
2.175908187e-29
6.598843501e-29
2.619450240e-28
1.379416182e-27
1.110437094e-26
1.452590267e-25
3.558180987e-24
1.810073302e-22
1.431204793e-20
6.635230257e-19
1.057934231e-17
7.857353747e-17
3.990160546e-16
1.886884716e-15
1.983099392e-30
2.367716166e-30
3.324637189e-30
5.507893784e-30
1.090232838e-29
2.284591296e-29
6.180082290e-29
2.188307714e-28
1.058621912e-27
7.155547905e-27
7.518595999e-26
1.379047545e-24
4.964165013e-23
3.162564942e-21
1.732068120e-19
3.720227169e-18
3.346213723e-17
1.815944492e-16
8.028562793e-16
3.266054378e-15
4.084934024e-30
4.995823703e-30
7.344503226e-30
1.301812442e-29
2.460214597e-29
5.876463334e-29
1.860596664e-28
7.885973615e-28
4.584478046e-27
3.923380876e-26
5.491778532e-25
1.413735777e-23
6.761498930e-22
3.865069421e-20
1.129613821e-18
1.311663952e-17
8.124603736e-17
3.637745893e-16
1.502572674e-15
6.262162743e-18
8.739565793e-30
1.090467766e-29
1.673194717e-29
2.777140888e-29
5.805538043e-29
1.625076148e-28
5.982583861e-28
2.958436543e-27
2.082035040e-26
2.265686976e-25
4.243580130e-24
1.465059343e-22
7.574485212e-21
2.861734927e-19
4.535462000e-18
3.420596416e-17
1.661765267e-16
6.638007308e-16
2.580086938e-15
1.668615475e-17
1.994446979e-29
2.418983529e-29
3.375499938e-29
6.120209983e-29
1.509100727e-28
4.743428670e-28
1.978748541e-27
1.144466609e-26
9.802733930e-26
1.361115176e-24
3.348510727e-23
1.385017799e-21
5.978990112e-20
1.325411741e-18
1.300948937e-17
7.305540478e-17
3.027881748e-16
1.135677715e-15
2.926077766e-15
6.658627085e-17
3.576369161e-29
4.488838052e-29
7.212321006e-29
1.506588879e-28
4.023323711e-28
1.405373602e-27
6.666622691e-27
4.525906700e-26
4.735227967e-25
8.336750561e-24
2.548685861e-22
1.062841000e-20
3.158147922e-19
4.282046858e-18
2.967784244e-17
1.360674994e-16
5.089836173e-16
1.837825634e-15
5.522083826e-18
1.943791210e-16
7.267122086e-29
9.744086340e-29
1.692346793e-28
3.759084821e-28
1.087767859e-27
4.212690908e-27
2.274638134e-26
1.816459608e-25
2.318206845e-24
5.049739658e-23
1.739660862e-21
6.082614447e-20
1.167435803e-18
1.069058024e-17
5.774179421e-17
2.299817395e-16
8.069996885e-16
2.714891278e-15
1.554888647e-17
4.275023255e-16
1.655295674e-28
2.252738009e-28
4.037028479e-28
9.485604604e-28
2.967744441e-27
1.272561357e-26
7.822280845e-26
7.344405064e-25
1.131595852e-23
2.902155925e-22
9.905221035e-21
2.550550085e-19
3.266789203e-18
2.222311433e-17
1.002520764e-16
3.620638404e-16
1.222168767e-15
2.805784930e-15
4.703600226e-17
7.504011516e-16
3.776818677e-28
5.229917681e-28
9.704708342e-28
2.409522221e-27
8.139000663e-27
3.860133526e-26
2.698768534e-25
2.965169274e-24
5.388982138e-23
1.510598748e-21
4.486000976e-20
8.114359927e-19
7.433109214e-18
4.046933775e-17
1.600524208e-16
5.402775945e-16
1.772343402e-15
5.659101018e-18
1.158740808e-16
1.103375025e-15
8.638404372e-28
1.218067982e-27
2.342083896e-27
6.140682607e-27
2.236987666e-26
1.172036417e-25
9.294348422e-25
1.181967320e-23
2.437527425e-22
6.818455304e-21
1.601803862e-19
2.066572534e-18
1.451798199e-17
6.682161410e-17
2.398077390e-16
7.731593024e-16
2.422779102e-15
8.457009520e-18
2.350107734e-16
1.410468963e-15
1.979559005e-27
2.842462968e-27
5.662132565e-27
1.566513865e-26
6.147336081e-26
3.550991977e-25
3.176064149e-24
4.586745865e-23
1.018000161e-21
2.592602396e-20
4.607417682e-19
4.431787814e-18
2.530027520e-17
1.024418926e-16
3.420511664e-16
1.068914722e-15
2.916051455e-15
2.020392376e-17
4.061579820e-16
1.612250829e-15
4.541465338e-27
6.639001972e-27
1.369320052e-26
3.993832489e-26
1.685698202e-25
1.069985042e-24
1.069033635e-23
1.704457714e-22
3.824717044e-21
8.238845342e-20
1.105336640e-18
8.332848023e-18
4.043027647e-17
1.482742555e-16
4.691975228e-16
1.432668986e-15
2.174671499e-15
4.426990199e-17
6.175421422e-16
1.683467907e-15
1.042364617e-26
1.550763189e-26
3.309391505e-26
1.016341684e-25
4.603620095e-25
3.193955552e-24
3.513210794e-23
5.962233866e-22
1.268306099e-20
2.210685231e-19
2.291138008e-18
1.416093968e-17
6.041376190e-17
2.050762069e-16
6.234901954e-16
1.859538299e-15
5.730476205e-18
8.554989761e-17
8.478576999e-16
1.632127276e-15
2.392224687e-26
3.620395730e-26
7.986823566e-26
2.578597399e-25
1.249421337e-24
9.400887868e-24
1.115979613e-22
1.932645447e-21
3.681935068e-20
5.112330569e-19
4.229446512e-18
2.224427004e-17
8.561961762e-17
2.734501720e-16
8.068319445e-16
2.318195412e-15
6.211684470e-18
1.473603062e-16
1.073135067e-15
1.487715073e-15
5.487179183e-26
8.443206194e-26
1.923373999e-25
6.514363019e-25
3.361126970e-24
2.713173477e-23
3.390175367e-22
5.730258530e-21
9.380720248e-20
1.043104376e-18
7.123329575e-18
3.283819124e-17
1.162998485e-16
3.538683184e-16
1.020443701e-15
2.713270595e-15
1.108622822e-17
2.303159663e-16
1.272815260e-15
1.287605900e-15
1.257393045e-25
1.965915068e-25
4.618047800e-25
1.636197542e-24
8.934200916e-24
7.629287546e-23
9.753051783e-22
1.542109412e-20
2.118898428e-19
1.919688047e-18
1.115246527e-17
4.612711013e-17
1.526115054e-16
4.466863465e-16
1.264248267e-15
2.802114134e-15
1.986309831e-17
3.321908188e-16
1.433161862e-15
1.066911449e-15
2.877038403e-25
4.567131528e-25
1.104340040e-24
4.077876547e-24
2.337611693e-23
2.075818138e-22
2.633528462e-21
3.759919581e-20
4.303266066e-19
3.247435290e-18
1.646564379e-17
6.223370168e-17
1.946390186e-16
5.521445239e-16
1.535837832e-15
2.035982211e-15
3.358364163e-17
4.485719219e-16
1.547900401e-15
8.529092635e-16
6.568665331e-25
1.057701971e-24
2.626645137e-24
1.006031768e-23
5.994099612e-23
5.428646070e-22
6.630034962e-21
8.333397422e-20
7.976067657e-19
5.128350145e-18
2.317922467e-17
8.122999570e-17
2.424124139e-16
6.703525583e-16
1.828771678e-15
1.896136543e-17
5.316547848e-17
5.738786674e-16
1.617047899e-15
6.631008580e-16
1.495077699e-24
2.439023343e-24
6.202780839e-24
2.449560879e-23
1.498989665e-22
1.356143559e-21
1.550631127e-20
1.690768373e-19
1.368296506e-18
7.654776396e-18
3.137938198e-17
1.031489997e-16
2.959229902e-16
8.012609316e-16
2.129850966e-15
4.785667811e-18
7.916279122e-17
7.023631434e-16
1.644957929e-15
5.056829661e-16
3.388179701e-24
5.591560947e-24
1.451090847e-23
5.866370008e-23
3.637754922e-22
3.218455096e-21
3.367727730e-20
3.168424476e-19
2.199556206e-18
1.090666922e-17
4.112629509e-17
1.279959763e-16
3.551333315e-16
9.446110695e-16
2.414796198e-15
5.892572197e-18
1.116878159e-16
8.288653407e-16
1.638355838e-15
3.815685901e-16
7.632886240e-24
1.271957478e-23
3.354031219e-23
1.376529189e-22
8.527834163e-22
7.227733265e-21
6.808038593e-20
5.536325933e-19
3.348073823e-18
1.495095670e-17
5.245901306e-17
1.557565039e-16
4.199864632e-16
1.099867644e-15
2.641537910e-15
8.360095669e-18
1.504288433e-16
9.492456329e-16
1.604778263e-15
2.871618826e-16
1.705925472e-23
2.864244262e-23
7.635995481e-23
3.152054213e-22
1.922513785e-21
1.532706008e-20
1.286666835e-19
9.103171176e-19
4.867810018e-18
1.984207375e-17
6.540057538e-17
1.864044741e-16
4.904087046e-16
1.266122486e-15
2.740165854e-15
1.203889520e-17
1.947328988e-16
1.060525634e-15
1.551516645e-15
2.169703818e-16
3.773483082e-23
6.367269499e-23
1.706524532e-22
7.017342067e-22
4.152509782e-21
3.068481366e-20
2.286121081e-19
1.420280308e-18
6.808588379e-18
2.562340949e-17
7.996186645e-17
2.199075696e-16
5.663139684e-16
1.441959471e-15
2.599279309e-15
1.703784193e-17
2.437147086e-16
1.160848866e-15
1.485015749e-15
1.653991391e-16
8.238354513e-23
1.393062817e-22
3.730817411e-22
1.513160501e-21
8.570836661e-21
5.807983162e-20
3.842126123e-19
2.118091796e-18
9.215391271e-18
3.232908373e-17
9.614611938e-17
2.562312019e-16
6.476029854e-16
1.625288893e-15
2.054705856e-15
2.347992365e-17
2.963669750e-16
1.249316640e-15
1.410616601e-15
1.276433032e-16
1.769879192e-22
2.989918201e-22
7.952747816e-22
3.149746043e-21
1.688141471e-20
1.042204402e-19
6.145125480e-19
3.038380081e-18
1.212824322e-17
3.998558802e-17
1.139513967e-16
2.953422625e-16
7.341584705e-16
1.813109612e-15
9.311698868e-16
3.145787378e-17
3.516557187e-16
1.325768205e-15
1.332512113e-15
9.993274329e-17
3.730061735e-22
6.276255286e-22
1.647409731e-21
6.312618844e-21
3.172618239e-20
1.779386390e-19
9.407559999e-19
4.214973788e-18
1.558236162e-17
4.861364658e-17
1.333732601e-16
3.372103349e-16
8.258434988e-16
2.001213990e-15
9.140196619e-18
4.102261482e-17
4.085946964e-16
1.390588567e-15
1.253845362e-15
7.946090324e-17
7.689211611e-22
1.284484216e-21
3.306557889e-21
1.216019691e-20
5.694859236e-20
2.902281575e-19
1.385772111e-18
5.680294738e-18
1.960869261e-17
5.822963010e-17
1.544068784e-16
3.818095221e-16
9.224900334e-16
2.183794726e-15
4.733744918e-18
5.218185516e-17
4.662903484e-16
1.444522771e-15
1.176862992e-15
6.419760864e-17
1.545705339e-21
2.555483216e-21
6.415403707e-21
2.249778678e-20
9.781973336e-20
4.541332790e-19
1.973381727e-18
7.465008545e-18
2.423435809e-17
6.884668188e-17
1.770475628e-16
4.291190963e-16
1.023895280e-15
2.352935998e-15
4.753373027e-18
6.490442990e-17
5.239713258e-16
1.488514063e-15
1.103082839e-15
5.269766581e-17
3.021794508e-21
4.930266263e-21
1.201294733e-20
3.998336394e-20
1.611925083e-19
6.845221439e-19
2.727847245e-18
9.597885360e-18
2.948326161e-17
8.047631101e-17
2.012933653e-16
4.791228733e-16
1.129803134e-15
2.497952514e-15
5.490485360e-18
7.912656131e-17
5.809938722e-16
1.523597765e-15
1.033442923e-15
4.393566471e-17
5.732164627e-21
9.207142845e-21
2.169218037e-20
6.832484454e-20
2.555649394e-19
9.977760458e-19
3.673440515e-18
1.210573524e-17
3.537671764e-17
9.312861214e-17
2.271441821e-16
5.318087675e-16
1.239894567e-15
2.604581194e-15
6.639694785e-18
9.476020442e-17
6.368445523e-16
1.550837675e-15
9.684506525e-16
3.717804375e-17
1.053357711e-20
1.662425323e-20
3.777225945e-20
1.124437433e-19
3.910481860e-19
1.411463517e-18
4.834110414e-18
1.501348102e-17
4.193391392e-17
1.068133308e-16
2.546026131e-16
5.871687781e-16
1.353758735e-15
2.653970731e-15
8.143756210e-18
1.116998612e-16
6.911287599e-16
1.571254614e-15
9.083123538e-16
3.190598595e-17
1.873319937e-20
2.900934968e-20
6.346710070e-20
1.785832131e-19
5.792558342e-19
1.943984308e-18
6.233209025e-18
1.834432955e-17
4.917242941e-17
1.215406701e-16
2.836753331e-16
6.451975749e-16
1.470878960e-15
2.621566894e-15
9.997525232e-18
1.298296572e-16
7.435584602e-16
1.585795662e-15
8.530136557e-16
2.774830434e-17
3.223241637e-20
4.893486894e-20
1.030301731e-19
2.743508134e-19
8.331286327e-19
2.614283520e-18
7.893377663e-18
2.211984209e-17
5.710851331e-17
1.373208762e-16
3.143711556e-16
7.058912060e-16
1.590596547e-15
2.476134983e-15
1.221063100e-17
1.490289638e-16
7.939300517e-16
1.595323491e-15
8.023972691e-16
2.443447447e-17
5.367326175e-20
7.986155035e-20
1.618590122e-19
4.086958795e-19
1.166726649e-18
3.441565437e-18
9.836404754e-18
2.636031311e-17
6.575772965e-17
1.541654157e-16
3.467030183e-16
7.692435628e-16
1.712075030e-15
2.179818001e-15
1.479683940e-17
1.691766509e-16
8.421156216e-16
1.600595170e-15
7.562040895e-16
2.176729064e-17
8.657067652e-20
1.262549037e-19
2.465495380e-19
5.918263808e-19
1.595004054e-18
4.445065961e-18
1.208319089e-17
3.108470358e-17
7.513512448e-17
1.720867592e-16
3.806868396e-16
8.352474169e-16
1.834257090e-15
1.692174367e-15
1.777021598e-17
1.901557946e-16
8.880555662e-16
1.602294237e-15
7.141201695e-16
1.959739230e-17
1.354185749e-19
1.936623348e-19
3.648941044e-19
8.350847097e-19
2.133591536e-18
5.643890226e-18
1.465381095e-17
3.631101405e-17
8.525505715e-17
1.910988140e-16
4.163407521e-16
9.038886763e-16
1.955806675e-15
9.887241058e-16
2.114344620e-17
2.118543634e-16
9.317333030e-16
1.601010495e-15
6.758167981e-16
1.781561312e-17
2.057564447e-19
2.887432617e-19
5.258367141e-19
1.150793120e-18
2.798579858e-18
7.056867008e-18
1.756742640e-17
4.205641361e-17
9.613229034e-17
2.112163769e-16
4.536864778e-16
9.751453631e-16
2.075040432e-15
1.455997506e-16
2.492749835e-17
2.341673738e-16
9.731638198e-16
1.597244183e-15
6.409744323e-16
1.634288511e-17
3.041936738e-19
4.192559665e-19
7.393786669e-19
1.552086088e-18
3.606348234e-18
8.702432576e-18
2.084243145e-17
4.833735373e-17
1.077814752e-16
2.324562353e-16
4.927473022e-16
1.048982720e-15
2.189852048e-15
7.134026681e-18
2.913100487e-17
2.569983140e-16
1.012392020e-15
1.591421166e-15
6.092666428e-16
1.511594215e-17
4.383927969e-19
5.940000791e-19
1.016464988e-18
2.052736573e-18
4.573386105e-18
1.059861931e-17
2.449652191e-17
5.516982803e-17
1.202175812e-16
2.548366712e-16
5.335493387e-16
1.125350098e-15
2.297595635e-15
4.818882078e-18
3.376070252e-17
2.802590746e-16
1.049483348e-15
1.583903535e-15
5.803836635e-16
1.408628092e-17
6.170112592e-19
8.227329341e-19
1.368846384e-18
2.667002817e-18
5.716191099e-18
1.276297821e-17
2.854667259e-17
6.256938531e-17
1.334559230e-16
2.783769475e-16
5.761194081e-16
1.204175360e-15
2.394983126e-15
4.446561237e-18
3.882152231e-17
3.038697022e-16
1.084513600e-15
1.574994835e-15
5.540387580e-16
1.321635276e-17
8.496215644e-19
1.116056024e-18
1.808946033e-18
3.409468099e-18
7.051135465e-18
1.521254761e-17
3.300930220e-17
7.055121607e-17
1.475120507e-16
3.030982835e-16
6.204851987e-16
1.285360916e-15
2.477917555e-15
4.573070264e-18
4.431640690e-17
3.277596638e-16
1.117572789e-15
1.564959696e-15
5.299730258e-16
1.247720286e-17
1.146605435e-18
1.485296216e-18
2.349699573e-18
4.294918845e-18
8.594414908e-18
1.796388846e-17
3.790029413e-17
7.913060059e-17
1.624028174e-16
3.290236193e-16
6.666759902e-16
1.368770679e-15
2.541329056e-15
4.945205306e-18
5.024701873e-17
3.518645616e-16
1.148741448e-15
1.553988554e-15
5.079350895e-16
1.184478463e-17
1.519037296e-18
1.942378226e-18
3.004452098e-18
5.338215644e-18
1.036197311e-17
2.103313914e-17
4.323516074e-17
8.832251996e-17
1.781449731e-16
3.561761998e-16
7.147198396e-16
1.454232268e-15
2.578956938e-15
5.487985350e-18
5.661363190e-17
3.761285166e-16
1.178122714e-15
1.542275430e-15
4.877189964e-16
1.130291433e-17
1.978561946e-18
2.499702105e-18
3.786804683e-18
6.554235702e-18
1.236946246e-17
2.443592832e-17
4.902900748e-17
9.814221044e-17
1.947561180e-16
3.845816255e-16
7.646451194e-16
1.541517392e-15
2.583132817e-15
6.175137888e-18
6.341540657e-17
4.005044387e-16
1.205817468e-15
1.529984194e-15
4.691156841e-16
1.083242017e-17
2.537286354e-18
3.170020950e-18
4.710552785e-18
7.957744034e-18
1.463220872e-17
2.818752028e-17
5.529663477e-17
1.086047238e-16
2.122549881e-16
4.142667171e-16
8.164749010e-16
1.630334477e-15
2.544524438e-15
6.998230490e-18
7.065033443e-17
4.249471250e-16
1.231906789e-15
1.517226625e-15
4.519673431e-16
1.042479211e-17
3.207663691e-18
3.966346440e-18
5.789534405e-18
9.563408870e-18
1.716523651e-17
3.230279319e-17
6.205270659e-17
1.197255341e-16
2.306605529e-16
4.452589389e-16
8.702344486e-16
1.720312365e-15
2.451945991e-15
7.956658759e-18
7.831560907e-17
4.494184176e-16
1.256479759e-15
1.504096552e-15
4.361208371e-16
1.007002174e-17
4.002392817e-18
4.901839100e-18
7.037619315e-18
1.138565682e-17
1.998326880e-17
3.679629717e-17
6.931163689e-17
1.315202832e-16
2.499929209e-16
4.775871459e-16
9.259411594e-16
1.810986084e-15
2.292280042e-15
9.053735962e-18
8.640738518e-17
4.738839935e-16
1.279616634e-15
1.490677930e-15
4.214341779e-16
9.759452947e-18
4.934334806e-18
5.989738755e-18
8.468595867e-18
1.343877424e-17
2.310065493e-17
4.168223996e-17
7.708788915e-17
1.440049068e-16
2.702730134e-16
5.112811332e-16
9.836082711e-16
1.901777226e-15
2.050841366e-15
1.029485232e-17
9.492204814e-17
4.983149261e-16
1.301398748e-15
1.477033764e-15
4.077825279e-16
9.486353875e-18
6.016411419e-18
7.243301267e-18
1.009614041e-17
1.573674547e-17
2.653151084e-17
4.697473458e-17
8.539574584e-17
1.571956658e-16
2.915225083e-16
5.463708716e-16
1.043240621e-15
1.991967179e-15
1.712797519e-15
1.168664785e-17
1.038545516e-16
5.226848676e-16
1.321898831e-15
1.463221964e-15
3.950575783e-16
9.245123885e-18
7.261594033e-18
8.675723796e-18
1.193381130e-17
1.829337799e-17
3.028969086e-17
5.268749846e-17
9.424970635e-17
1.711096965e-16
3.137639738e-16
5.828880486e-16
1.104837568e-15
2.080668840e-15
1.267316346e-15
1.323645959e-17
1.132001449e-16
5.469718750e-16
1.341186192e-15
1.449282934e-15
3.831625633e-16
9.031107233e-18
8.682793502e-18
1.030012510e-17
1.399499776e-17
2.112221297e-17
3.438869810e-17
5.883428001e-17
1.036642111e-16
1.857634723e-16
3.370204469e-16
6.208632329e-16
1.168382853e-15
2.166793786e-15
7.190190055e-16
1.495204276e-17
1.229529952e-16
5.711557559e-16
1.359330580e-15
1.435253898e-15
3.720115419e-16
8.840331956e-18
1.029286160e-17
1.212951917e-17
1.629285436e-17
2.423654275e-17
3.884194536e-17
6.542872027e-17
1.136537015e-16
2.011753551e-16
3.613167859e-16
6.603280716e-16
1.233850178e-15
2.249012590e-15
1.308870287e-16
1.684145481e-17
1.331076885e-16
5.952197881e-16
1.376388667e-15
1.421161973e-15
3.615286198e-16
8.669490696e-18
1.210451862e-17
1.417674875e-17
1.884042800e-17
2.764949815e-17
4.366260155e-17
7.248416388e-17
1.242333116e-16
2.173629778e-16
3.866774742e-16
7.013146841e-16
1.301193274e-15
2.325694656e-15
8.909474994e-18
1.891278436e-17
1.436575587e-16
6.191470635e-16
1.392418215e-15
1.407028370e-15
3.516453523e-16
8.515683692e-18
1.413035867e-17
1.645448441e-17
2.165045853e-17
3.137394316e-17
4.886368739e-17
8.001419772e-17
1.354176901e-16
2.343456693e-16
4.131287404e-16
7.438519895e-16
1.370347416e-15
2.394868047e-15
5.384140748e-18
2.117431663e-17
1.545968133e-16
6.429242476e-16
1.407470034e-15
1.392871989e-15
3.423023644e-16
8.376483674e-18
1.638287741e-17
1.897529724e-17
2.473566299e-17
3.542256645e-17
5.445801466e-17
8.803231845e-17
1.472224477e-16
2.521421424e-16
4.406969657e-16
7.879692956e-16
1.441218829e-15
2.454134122e-15
4.546323560e-18
2.363417428e-17
1.659186875e-16
6.665397141e-16
1.421594649e-15
1.378704608e-15
3.334462409e-16
8.249784264e-18
1.887433692e-17
2.175150104e-17
2.810839618e-17
3.980800447e-17
6.045857611e-17
9.655211295e-17
1.596628092e-16
2.707727325e-16
4.694093238e-16
8.336967047e-16
1.513689740e-15
2.500596586e-15
4.335781365e-18
2.630044042e-17
1.776158242e-16
6.899828977e-16
1.434835263e-15
1.364536581e-15
3.250293780e-16
8.133716531e-18
2.161689582e-17
2.479534034e-17
3.178094631e-17
4.454255207e-17
6.687792876e-17
1.055873038e-16
1.727550873e-16
2.902577150e-16
4.992936445e-16
8.810571104e-16
1.587603405e-15
2.530759345e-15
4.392504210e-18
2.918114515e-17
1.896815628e-16
7.132409590e-16
1.447233916e-15
1.350374935e-15
3.170087072e-16
8.026727444e-18
2.462256673e-17
2.811881765e-17
3.576550197e-17
4.963859527e-17
7.372886294e-17
1.151517104e-16
1.865152371e-16
3.106184090e-16
5.303791361e-16
9.300753947e-16
1.662754870e-15
2.540436574e-15
4.605811921e-18
3.228419155e-17
2.021087439e-16
7.363072936e-16
1.458827423e-15
1.336223235e-15
3.093469267e-16
7.927435117e-18
2.790317591e-17
3.173384735e-17
4.007400468e-17
5.510830234e-17
8.102412701e-17
1.252591705e-16
2.009600727e-16
3.318767617e-16
5.626935087e-16
9.807689664e-16
1.738892446e-15
2.524624114e-15
4.932536679e-18
3.561720589e-17
2.148901482e-16
7.591726934e-16
1.469649814e-15
1.322086639e-15
3.020102215e-16
7.834610419e-18
3.147046498e-17
3.565224290e-17
4.471840529e-17
6.096395893e-17
8.877658613e-17
1.359240569e-16
2.161068739e-16
3.540549769e-16
5.962673339e-16
1.033151770e-15
1.815699712e-15
2.477380698e-15
5.354067753e-18
3.918773572e-17
2.280169415e-16
7.818278462e-16
1.479734457e-15
1.307967641e-15
2.949692331e-16
7.747241630e-18
3.533597281e-17
3.988558969e-17
4.971049687e-17
6.721747777e-17
9.699887713e-17
1.471606594e-16
2.319728941e-16
3.771761638e-16
6.311290162e-16
1.087234008e-15
1.892790234e-15
2.391768943e-15
5.862665524e-18
4.300297385e-17
2.414828682e-16
8.042666301e-16
1.489107870e-15
1.293863423e-15
2.881969474e-16
7.664340826e-18
3.951125442e-17
4.444547059e-17
5.506194336e-17
7.388111070e-17
1.057042240e-16
1.589838307e-16
2.485764602e-16
4.012644324e-16
6.673085207e-16
1.143013341e-15
1.969679757e-15
2.259780142e-15
6.455996330e-18
4.707003407e-17
2.552785651e-16
8.264811745e-16
1.497801102e-15
1.279777666e-15
2.816692105e-16
7.585125107e-18
4.400764490e-17
4.934340621e-17
6.078449768e-17
8.096707506e-17
1.149057113e-16
1.714085046e-16
2.659357625e-16
4.263437653e-16
7.048344809e-16
1.200483897e-15
2.045787504e-15
2.072524082e-15
7.134758336e-18
5.139591745e-17
2.693966777e-16
8.484660658e-16
1.505835388e-15
1.265709931e-15
2.753647384e-16
7.508914671e-18
4.883650959e-17
5.459079510e-17
6.688988765e-17
8.848744720e-17
1.246163889e-16
1.844499287e-16
2.840701948e-16
4.524390775e-16
7.437370991e-16
1.259626050e-15
2.120399466e-15
1.820713031e-15
7.901476680e-18
5.598673890e-17
2.838280100e-16
8.702120343e-16
1.513234981e-15
1.251656091e-15
2.692645788e-16
7.435072398e-18
5.400905800e-17
6.019902511e-17
7.338971854e-17
9.645469604e-17
1.348498974e-16
1.981236913e-16
3.029992948e-16
4.795761017e-16
7.840420483e-16
1.320408303e-15
2.192663694e-15
1.496056396e-15
8.759840252e-18
6.084907942e-17
2.985651520e-16
8.917156583e-16
1.520020744e-15
1.237617717e-15
2.633517728e-16
7.363058338e-18
5.953666486e-17
6.617949944e-17
8.029575840e-17
1.048810362e-16
1.456199335e-16
2.124461211e-16
3.227432349e-16
5.077808114e-16
8.257782642e-16
1.382781459e-15
2.261534334e-15
1.094575484e-15
9.714377094e-18
6.598858545e-17
3.135981191e-16
9.129699283e-16
1.526212780e-15
1.223591468e-15
2.576119196e-16
7.292380629e-18
6.543048995e-17
7.254365892e-17
8.761987401e-17
1.137789702e-16
1.569402136e-16
2.274335811e-16
3.433225985e-16
5.370792844e-16
8.689703758e-16
1.446677910e-15
2.325773031e-15
6.245391764e-16
1.077024553e-17
7.141119606e-17
3.289189597e-16
9.339682520e-16
1.531827348e-15
1.209578312e-15
2.520308963e-16
7.222625712e-18
7.170176926e-17
7.930292669e-17
9.537380192e-17
1.231614527e-16
1.688250270e-16
2.431027888e-16
3.647585513e-16
5.674985353e-16
9.136404968e-16
1.512012064e-15
2.383884893e-15
1.352679168e-16
1.193296848e-17
7.712191415e-17
3.445173969e-16
9.547036814e-16
1.536882457e-15
1.195574215e-15
2.465959318e-16
7.153405796e-18
7.836184105e-17
8.646865569e-17
1.035694876e-16
1.330410835e-16
1.812891798e-16
2.594711864e-16
3.870729957e-16
5.990659197e-16
9.598115018e-16
1.578664956e-15
2.434070574e-15
1.029206343e-17
1.320849188e-17
8.312600617e-17
3.603854525e-16
9.751723312e-16
1.541392760e-15
1.181578865e-15
2.412969659e-16
7.084386424e-18
8.542197160e-17
9.405268631e-17
1.122191931e-16
1.434310960e-16
1.943471501e-16
2.765566393e-16
4.102884007e-16
6.318085045e-16
1.007498478e-15
1.646488726e-15
2.474203280e-15
5.830339919e-18
1.460294892e-17
8.942784085e-17
3.765123060e-16
9.953687138e-16
1.545370911e-15
1.167590156e-15
2.361239349e-16
7.015339791e-18
9.289361934e-17
1.020664765e-16
1.213350013e-16
1.543447011e-16
2.080140915e-16
2.943770282e-16
4.344274572e-16
6.657543649e-16
1.056716222e-15
1.715298295e-15
2.501737306e-15
4.715979930e-18
1.612279164e-17
9.603184332e-17
3.928896229e-16
1.015284057e-15
1.548832770e-15
1.153608120e-15
2.310684520e-16
6.945979483e-18
1.007882823e-16
1.105219897e-16
1.309295705e-16
1.657955314e-16
2.223058173e-16
3.129514161e-16
4.595139626e-16
7.009301035e-16
1.107473246e-15
1.784864381e-15
2.513652353e-15
4.342019838e-18
1.777461158e-17
1.029416358e-16
4.095063960e-16
1.034915525e-15
1.551787421e-15
1.139629388e-15
2.261226019e-16
6.876150792e-18
1.091177365e-16
1.194309478e-16
1.410152579e-16
1.777973622e-16
2.372378913e-16
3.322989385e-16
4.855710695e-16
7.373619183e-16
1.159768250e-15
1.854901392e-15
2.506377230e-15
4.267008291e-18
1.956510857e-17
1.101610643e-16
4.263532693e-16
1.054254760e-15
1.554248730e-15
1.125654811e-15
2.212801302e-16
6.805697679e-18
1.178935148e-16
1.288057208e-16
1.516048854e-16
1.903644366e-16
2.528266659e-16
3.524394199e-16
5.126238244e-16
7.750775976e-16
1.213598540e-15
1.925066989e-15
2.475720371e-15
4.355842626e-18
2.150120241e-17
1.176927174e-16
4.434196562e-16
1.073297895e-15
1.556226230e-15
1.111682002e-15
2.165349787e-16
6.734481366e-18
1.271277135e-16
1.386583974e-16
1.627118666e-16
2.035110724e-16
2.690892040e-16
3.733929882e-16
5.406965943e-16
8.141014257e-16
1.268949778e-15
1.994938061e-15
2.416786767e-15
4.554902868e-18
2.358982851e-17
1.255400201e-16
4.606959662e-16
1.092040645e-15
1.557729394e-15
1.097711937e-15
2.118813250e-16
6.662386493e-18
1.368325930e-16
1.490016033e-16
1.743492770e-16
2.172520248e-16
2.860423164e-16
3.951800056e-16
5.698152650e-16
8.544586273e-16
1.325795156e-15
2.064007702e-15
2.323932013e-15
4.839964212e-18
2.583786337e-17
1.337046266e-16
4.781702927e-16
1.110473653e-15
1.558769571e-15
1.083743350e-15
2.073148645e-16
6.589282324e-18
1.470201937e-16
1.598482656e-16
1.865305893e-16
2.316026499e-16
3.037034145e-16
4.178224850e-16
6.000037024e-16
8.961720503e-16
1.384097128e-15
2.131668750e-15
2.190777494e-15
5.199629568e-18
2.825248411e-17
1.421889098e-16
4.958333743e-16
1.128594686e-15
1.559350757e-15
1.069776880e-15
2.028305446e-16
6.515099801e-18
1.577032624e-16
1.712108507e-16
1.992700612e-16
2.465783819e-16
3.220910370e-16
4.413415033e-16
6.312885437e-16
9.392628522e-16
1.443801693e-15
2.197187273e-15
2.010338173e-15
5.628851955e-18
3.084061430e-17
1.509940620e-16
5.136735043e-16
1.146395791e-15
1.559485944e-15
1.055810340e-15
1.984249045e-16
6.439756226e-18
1.688945832e-16
1.831032645e-16
2.125818310e-16
2.621950227e-16
3.412236698e-16
4.657593425e-16
6.636953749e-16
9.837489537e-16
1.504836637e-15
2.259691760e-15
1.775474215e-15
6.126090048e-18
3.360933641e-17
1.601212711e-16
5.316799482e-16
1.163872360e-15
1.559178736e-15
1.041845483e-15
1.940942695e-16
6.363217826e-18
1.806070388e-16
1.955384989e-16
2.264804267e-16
2.784689237e-16
3.611198819e-16
4.910990643e-16
6.972488795e-16
1.029646637e-15
1.567112008e-15
2.318139737e-15
1.479881005e-15
6.691939866e-18
3.656574008e-17
1.695717076e-16
5.498418827e-16
1.181020307e-15
1.558441154e-15
1.027881771e-15
1.898353808e-16
6.285451814e-18
1.928542061e-16
2.085307474e-16
2.409805981e-16
2.954167921e-16
3.817993043e-16
5.173832696e-16
7.319758504e-16
1.076966511e-15
1.630506510e-15
2.371292371e-15
1.120408636e-15
7.328308598e-18
3.971672312e-17
1.793448233e-16
5.681476175e-16
1.197831110e-15
1.557277350e-15
1.013921556e-15
1.856459228e-16
6.206489249e-18
2.056497008e-16
2.220939573e-16
2.560981548e-16
3.130560666e-16
4.032817271e-16
5.446351425e-16
7.679005224e-16
1.125715821e-15
1.694871339e-15
2.417674602e-15
7.021347220e-16
8.038048799e-18
4.306921482e-17
1.894405642e-16
5.865857520e-16
1.214302242e-15
1.555693241e-15
9.999631284e-16
1.815236774e-16
6.126325786e-18
2.190071392e-16
2.362429247e-16
2.718480485e-16
3.314038539e-16
4.255883579e-16
5.728788922e-16
8.050466920e-16
1.175896687e-15
1.760025907e-15
2.455545858e-15
2.520513737e-16
8.824712167e-18
4.662993285e-17
1.998591537e-16
6.051453956e-16
1.230426641e-15
1.553697920e-15
9.860094869e-16
1.774665635e-16
6.044980328e-18
2.329410869e-16
2.509921444e-16
2.882469981e-16
3.504783521e-16
4.487390463e-16
6.021382117e-16
8.434381292e-16
1.227504199e-15
1.825742890e-15
2.482849988e-15
1.593030512e-17
9.692319758e-18
5.040574771e-17
2.105984544e-16
6.238152213e-16
1.246199249e-15
1.551294379e-15
9.720616515e-16
1.734731455e-16
5.962505307e-18
2.474663781e-16