/*--------------------------------*- C++ -*----------------------------------*\
| =========                 |                                                 |
| \\      /  F ield         | OpenFOAM: The Open Source CFD Toolbox           |
|  \\    /   O peration     | Version:  5.x                                   |
|   \\  /    A nd           | Web:      www.OpenFOAM.org                      |
|    \\/     M anipulation  |                                                 |
\*---------------------------------------------------------------------------*/
FoamFile
{
    version     2.0;
    format      ascii;
    class       volScalarField;
    location    "3.5";
    object       CH2;
}
// * * * * * * * * * * * * * * * * * * * * * * * * * * * * * * * * * * * * * //

dimensions      [0 0 0 0 0 0 0];

internalField   nonuniform List<scalar>
51080
(
0.000000000e+00
0.000000000e+00
0.000000000e+00
0.000000000e+00
0.000000000e+00
0.000000000e+00
0.000000000e+00
0.000000000e+00
0.000000000e+00
0.000000000e+00
4.543991207e-22
8.167087177e-22
1.511961719e-21
3.277639899e-21
9.056643545e-21
3.297364023e-20
1.710888594e-19
1.498429582e-18
3.311077303e-17
3.970563448e-15
0.000000000e+00
0.000000000e+00
0.000000000e+00
0.000000000e+00
0.000000000e+00
0.000000000e+00
0.000000000e+00
0.000000000e+00
3.217627876e-22
5.219718808e-22
9.484281843e-22
1.782198813e-21
3.977344501e-21
1.159351509e-20
4.430932081e-20
2.417723816e-19
2.203518572e-18
4.339608858e-17
2.603255086e-15
2.078912695e-13
0.000000000e+00
0.000000000e+00
0.000000000e+00
0.000000000e+00
0.000000000e+00
0.000000000e+00
0.000000000e+00
3.661087900e-22
5.934834915e-22
1.086462501e-21
2.057964852e-21
4.607912632e-21
1.344128246e-20
5.052923136e-20
2.637829612e-19
2.196949658e-18
3.546254670e-17
1.363289630e-15
7.508433935e-14
1.412514400e-12
0.000000000e+00
0.000000000e+00
0.000000000e+00
0.000000000e+00
0.000000000e+00
2.871370375e-22
4.164954605e-22
6.616864249e-22
1.165837368e-21
2.298269721e-21
5.070227240e-21
1.455686367e-20
5.279401084e-20
2.556451991e-19
1.903167156e-18
2.502643699e-17
6.887142743e-16
2.970105429e-14
6.169154183e-13
4.366937475e-12
0.000000000e+00
0.000000000e+00
0.000000000e+00
0.000000000e+00
3.389007444e-22
4.835411026e-22
7.579197129e-22
1.324888918e-21
2.633346181e-21
5.453457135e-21
1.510544415e-20
5.194432223e-20
2.313439607e-19
1.528218880e-18
1.657763484e-17
3.422487467e-16
1.179742100e-14
2.707175437e-13
2.252913756e-12
9.362444037e-12
0.000000000e+00
2.752462162e-22
3.234989234e-22
4.117661739e-22
5.715968157e-22
8.742675303e-22
1.493539791e-21
2.900185935e-21
5.852483852e-21
1.524728344e-20
4.909283608e-20
2.001409785e-19
1.172016479e-18
1.061731036e-17
1.694605119e-16
4.638278241e-15
1.132199859e-13
1.142047525e-12
5.358112350e-12
1.649033447e-11
3.900093559e-22
4.310404511e-22
5.221582024e-22
6.948246333e-22
1.023317227e-21
1.686931159e-21
3.160123590e-21
6.145221832e-21
1.506234930e-20
4.507848739e-20
1.678830226e-19
8.717593232e-19
6.663117995e-18
8.398855896e-17
1.808722468e-15
4.409186483e-14
5.456300342e-13
3.007911154e-12
1.003503759e-11
2.576557191e-11
6.281405772e-22
7.060793429e-22
8.832355354e-22
1.231867621e-21
1.931005583e-21
3.443829046e-21
6.383079952e-21
1.459519505e-20
4.055401915e-20
1.379557347e-19
6.358136922e-19
4.134898063e-18
4.185910589e-17
7.059852949e-16
1.595324774e-14
2.381501297e-13
1.602129290e-12
6.016579417e-12
1.627046056e-11
3.653722617e-11
1.051521312e-21
1.202879169e-21
1.555404362e-21
2.276986964e-21
3.805114039e-21
6.621664996e-21
1.390430904e-20
3.551302258e-20
1.135842354e-19
4.612250357e-19
2.562803206e-18
2.111301581e-17
2.790999444e-16
5.452068136e-15
9.293412546e-14
7.858530312e-13
3.455547592e-12
1.016708947e-11
2.399043956e-11
4.189283453e-11
1.817575123e-21
2.115785903e-21
2.828348618e-21
4.347316603e-21
6.999772829e-21
1.339558714e-20
3.150203312e-20
9.147213368e-20
3.330349923e-19
1.596718685e-18
1.084713184e-17
1.131361214e-16
1.813103542e-15
3.225531003e-14
3.448954141e-13
1.851575937e-12
6.142494414e-12
1.539598366e-11
3.280486576e-11
4.767950031e-14
3.223774402e-21
3.806766838e-21
5.247240554e-21
7.663797722e-21
1.327703123e-20
2.850264224e-20
7.464277583e-20
2.416419142e-19
1.006356167e-18
5.710753337e-18
4.754006764e-17
6.067492731e-16
1.015147625e-14
1.322177432e-13
9.000373841e-13
3.504580025e-12
9.619741461e-12
2.160378393e-11
4.043594741e-11
2.797885742e-14
5.984696722e-21
6.913459773e-21
8.865835162e-21
1.381006823e-20
2.698455927e-20
6.291114954e-20
1.799222829e-19
6.503146296e-19
3.108663316e-18
2.091804549e-17
2.103568969e-16
3.025917179e-15
4.390751690e-14
3.853391021e-13
1.840974698e-12
5.736255670e-12
1.381062728e-11
2.857434631e-11
3.294712765e-11
3.560104296e-14
9.256888259e-21
1.096521546e-20
1.560415375e-20
2.695333412e-20
5.571985349e-20
1.399556014e-19
4.381465480e-19
1.772162536e-18
9.744892547e-18
7.735448426e-17
9.021864737e-16
1.291431078e-14
1.416694002e-13
8.651714479e-13
3.190644945e-12
8.495238949e-12
1.862256092e-11
3.561568234e-11
3.110621223e-14
4.236736150e-14
1.569280368e-20
1.951205967e-20
2.937867603e-20
5.299815793e-20
1.159401757e-19
3.131471957e-19
1.073645943e-18
4.865605030e-18
3.073380487e-17
2.825839295e-16
3.560484699e-15
4.444249037e-14
3.528162932e-13
1.612462948e-12
4.928727577e-12
1.171284760e-11
2.393160816e-11
4.020501098e-11
2.723152627e-14
4.509250369e-14
2.890190940e-20
3.630560226e-20
5.586532847e-20
1.048354521e-19
2.422688833e-19
7.028256270e-19
2.638776685e-18
1.339061955e-17
9.639896343e-17
9.901240474e-16
1.228365018e-14
1.219479728e-13
7.184608274e-13
2.633557276e-12
7.011702819e-12
1.531514679e-11
2.951731081e-11
3.221679223e-11
3.293295970e-14
4.336623235e-14
5.318588824e-20
6.762151628e-20
1.066148601e-19
2.079455386e-19
5.070516069e-19
1.578526396e-18
6.484609282e-18
3.671179903e-17
2.960992451e-16
3.219322123e-15
3.583739080e-14
2.739308559e-13
1.260358778e-12
3.910687360e-12
9.387077766e-12
1.922410163e-11
3.489133769e-11
4.509228289e-14
3.874371222e-14
3.832293953e-14
9.786550801e-20
1.260095405e-19
2.036646594e-19
4.126545726e-19
1.060774664e-18
3.540253398e-18
1.587827142e-17
9.947292454e-17
8.738656293e-16
9.420015130e-15
8.794691735e-14
5.239876960e-13
1.981131912e-12
5.413034819e-12
1.200121431e-11
2.334886653e-11
3.885417253e-11
2.553699674e-14
4.275743106e-14
3.160619552e-14
1.800229060e-19
2.347452088e-19
3.888779214e-19
8.180254517e-19
2.214839531e-18
7.912134384e-18
3.857941054e-17
2.637401578e-16
2.428895074e-15
2.431017115e-14
1.845314122e-13
8.855872759e-13
2.869709747e-12
7.104743427e-12
1.480252959e-11
2.756611410e-11
3.827079704e-11
2.791997802e-14
4.438233079e-14
2.464973882e-14
3.309072642e-19
4.369055215e-19
7.415252952e-19
1.618256038e-18
4.609443370e-18
1.758111593e-17
9.253667763e-17
6.763287419e-16
6.242677154e-15
5.505553805e-14
3.396283597e-13
1.361852490e-12
3.907202708e-12
8.949754202e-12
1.774151589e-11
3.168322977e-11
2.433082525e-11
3.218033097e-14
4.375169428e-14
1.837986813e-14
6.075781776e-19
8.120340356e-19
1.411223088e-18
3.192188165e-18
9.549668001e-18
3.873707937e-17
2.177675477e-16
1.657288366e-15
1.464090507e-14
1.102926094e-13
5.626283354e-13
1.947987940e-12
5.071417535e-12
1.091430733e-11
2.076885076e-11
3.537160051e-11
4.864156806e-14
3.636421613e-14
4.137520517e-14
1.322264959e-14
1.114010838e-18
1.506641843e-18
2.679332989e-18
6.274466316e-18
1.966683927e-17
8.435716714e-17
4.992462539e-16
3.837988621e-15
3.116327795e-14
1.984368853e-13
8.576169325e-13
2.634213318e-12
6.339765472e-12
1.296786813e-11
2.383192586e-11
3.804181952e-11
2.582268488e-14
3.977434917e-14
3.787322484e-14
9.248295087e-15
2.039240627e-18
2.789790489e-18
5.072590767e-18
1.227885169e-17
4.019031676e-17
1.808585801e-16
1.106680306e-15
8.324153435e-15
6.033224666e-14
3.262067196e-13
1.224136780e-12
3.408244381e-12
7.690975869e-12
1.508318413e-11
2.687002721e-11
3.860326599e-11
2.539814470e-14
4.214394331e-14
3.381132271e-14
6.330940160e-15
3.725954602e-18
5.153771283e-18
9.571552976e-18
2.389933595e-17
8.132058495e-17
3.800432841e-16
2.355726021e-15
1.681962957e-14
1.070535299e-13
4.978956622e-13
1.658478239e-12
4.257022066e-12
9.105871971e-12
1.723585937e-11
2.980776258e-11
3.497733708e-11
2.749171631e-14
4.344390013e-14
2.962591047e-14
4.268488397e-15
6.793092047e-18
9.495035825e-18
1.798820397e-17
4.620491828e-17
1.624881756e-16
7.789258083e-16
4.785377753e-15
3.162855197e-14
1.759123057e-13
7.153598201e-13
2.154938419e-12
5.167852652e-12
1.056768368e-11
1.940367112e-11
3.254628254e-11
2.309755903e-11
3.020367130e-14
4.378055085e-14
2.561095282e-14
2.853003519e-15
1.235299043e-17
1.743568853e-17
3.363914050e-17
8.857984234e-17
3.196287948e-16
1.549857327e-15
9.234083535e-15
5.549871550e-14
2.706339474e-13
9.784106486e-13
2.706829901e-12
6.129010746e-12
1.206199101e-11
2.156573673e-11
3.495101228e-11
2.108815475e-13
3.294935575e-14
4.332491065e-14
2.193735326e-14
1.903585418e-15
2.239162932e-17
3.188677722e-17
6.252099453e-17
1.680475991e-16
6.168639132e-16
2.980861430e-15
1.688544732e-14
9.134827739e-14
3.938227802e-13
1.285363736e-12
3.307198761e-12
7.130039517e-12
1.357654744e-11
2.370167448e-11
3.683447923e-11
3.208570533e-14
3.547154977e-14
4.226526723e-14
1.868397549e-14
1.276942221e-15
4.042417055e-17
5.801649525e-17
1.153082575e-16
3.147257412e-16
1.163945711e-15
5.520605428e-15
2.925631219e-14
1.419680025e-13
5.469480224e-13
1.633553820e-12
3.949289182e-12
8.161869767e-12
1.510095590e-11
2.579065916e-11
3.793137148e-11
2.542469940e-14
3.764991726e-14
4.077891988e-14
1.586773008e-14
8.668113661e-16
7.260326579e-17
1.048758321e-16
2.106378939e-16
5.803105219e-16
2.140337494e-15
9.818588082e-15
4.811899828e-14
2.097828646e-13
7.304800009e-13
2.019769806e-12
4.626814781e-12
9.216736734e-12
1.662640927e-11
2.781052169e-11
3.786177983e-11
2.456067108e-14
3.943810693e-14
3.901796926e-14
1.346839747e-14
5.985105767e-16
1.295453742e-16
1.880459589e-16
3.802882453e-16
1.050487922e-15
3.823649368e-15
1.674666337e-14
7.537536029e-14
2.967119718e-13
9.440962056e-13
2.440565167e-12
5.334112756e-12
1.028810771e-11
1.814532834e-11
2.973671850e-11
3.607583975e-11
2.522879115e-14
4.083374410e-14
3.710446305e-14
1.144635946e-14
4.218227774e-16
2.292497125e-16
3.337936006e-16
6.769373852e-16
1.862027516e-15
6.619100251e-15
2.739100742e-14
1.129152934e-13
4.041238169e-13
1.186894233e-12
2.892487818e-12
6.066161529e-12
1.137053348e-11
1.965113757e-11
3.154112087e-11
3.177048318e-11
2.647514041e-14
4.186010715e-14
3.513138941e-14
9.754320620e-15
3.040468977e-16
4.015817788e-16
5.852999149e-16
1.185179738e-15
3.223277314e-15
1.108322466e-14
4.301176520e-14
1.624912557e-13
5.328600770e-13
1.457579398e-12
3.372227863e-12
6.818616746e-12
1.245949095e-11
2.113798621e-11
3.319083303e-11
2.378241226e-11
2.795068887e-14
4.255420974e-14
3.316625625e-14
8.344447898e-15
2.242999635e-16
6.948521569e-16
1.011522574e-15
2.036198497e-15
5.436386677e-15
1.793448051e-14
6.497726228e-14
2.256284476e-13
6.833014658e-13
1.754622610e-12
3.876691843e-12
7.587737449e-12
1.355126219e-11
2.260045612e-11
3.464653369e-11
1.066761895e-11
2.949232990e-14
4.295888425e-14
3.125546097e-14
7.172052090e-15
1.693359935e-16
1.185008679e-15
1.719259029e-15
3.424820525e-15
8.917431859e-15
2.804584467e-14
9.468685329e-14
3.035737592e-13
8.554502549e-13
2.076371597e-12
4.403059408e-12
8.370342856e-12
1.464277085e-11
2.403341012e-11
3.586068063e-11
9.639302089e-14
3.101347734e-14
4.311792973e-14
2.942905065e-14
6.197444799e-15
1.307413644e-16
1.987755781e-15
2.867575796e-15
5.627844578e-15
1.420956770e-14
4.241806165e-14
1.334958367e-13
3.972811156e-13
1.049011562e-12
2.421147118e-12
4.948792114e-12
9.163757488e-12
1.573148010e-11
2.543170025e-11
3.677520742e-11
3.680893026e-14
3.246557669e-14
4.307288338e-14
2.770481551e-14
5.386446126e-15
1.031302820e-16
3.272595583e-15
4.683875989e-15
9.020457733e-15
2.198506541e-14
6.213801257e-14
1.826539762e-13
5.074235901e-13
1.263471052e-12
2.787292935e-12
5.511621706e-12
9.965711545e-12
1.681528272e-11
2.679008030e-11
3.731864372e-11
2.803830850e-14
3.382159061e-14
4.286154535e-14
2.609156469e-14
4.710270478e-15
8.301793287e-17
5.278112446e-15
7.479492659e-15
1.408717496e-14
3.303401590e-14
8.832897092e-14
2.432631581e-13
6.344165634e-13
1.498162943e-12
3.173218530e-12
6.089565344e-12
1.077434164e-11
1.789238706e-11
2.810289978e-11
3.740234195e-11
2.519769697e-14
3.506749472e-14
4.251707408e-14
2.459177764e-14
4.144931616e-15
6.811426555e-17
8.326097631e-15
1.166184023e-14
2.142411893e-14
4.824029326e-14
1.221009422e-13
3.162513517e-13
7.784540690e-13
1.752318307e-12
3.577427153e-12
6.680868340e-12
1.158807101e-11
1.896123501e-11
2.936401117e-11
3.691593325e-11
2.423402985e-14
3.619764758e-14
4.206792655e-14
2.320362448e-14
3.670553472e-15
5.688112122e-17
1.283193037e-14
1.774021409e-14
3.173089248e-14
6.854864413e-14
1.645065610e-13
4.023671397e-13
9.395463687e-13
2.025107740e-12
3.998523787e-12
7.284002818e-12
1.240557709e-11
2.002044572e-11
3.056642462e-11
3.572115310e-11
2.409418307e-14
3.721173982e-14
4.153818378e-14
2.192269506e-14
3.270962280e-15
4.828358253e-17
1.930846175e-14
2.632318479e-14
4.579241622e-14
9.492705010e-14
2.165078351e-13
5.021789817e-13
1.117551181e-12
2.315676973e-12
4.435223012e-12
7.897652670e-12
1.322578280e-11
2.106874434e-11
3.170223452e-11
3.364426727e-11
2.437950404e-14
3.811290831e-14
4.094789697e-14
2.074291623e-14
2.932949731e-15
4.161122903e-17
2.836183556e-14
3.810694860e-14
6.445283447e-14
1.283301229e-13
2.789526141e-13
6.160922744e-13
1.312212555e-12
2.623161668e-12
4.886340488e-12
8.520653150e-12
1.404774710e-11
2.210490196e-11
3.276229014e-11
3.046711558e-11
2.490400869e-14
3.890636248e-14
4.031338740e-14
1.965736478e-14
2.645754454e-15
3.636440449e-17
4.067926078e-14
5.385565052e-14
8.858531406e-14
1.696672011e-13
3.525627751e-13
7.443625336e-13
1.523182411e-12
2.946721063e-12
5.350807203e-12
9.152007691e-12
1.487069861e-11
2.312765122e-11
3.373593673e-11
2.591955466e-11
2.556842426e-14
3.959849367e-14
3.964791463e-14
1.865870710e-14
2.400602315e-15
3.218966157e-17
5.700913714e-14
7.437643390e-14
1.190616013e-13
2.197763910e-13
4.379303030e-13
8.871141246e-13
1.750045808e-12
3.285528354e-12
5.827652867e-12
9.790846289e-12
1.569396626e-11
2.413569952e-11
3.461072577e-11
1.968634476e-11
2.631456800e-14
4.019630870e-14
3.896216426e-14
1.773956544e-14
2.190234310e-15
2.882584473e-17
7.813744204e-14
1.004922570e-13
1.567232853e-13
2.794073026e-13
5.355209810e-13
1.044361748e-12
1.992346759e-12
3.638794378e-12
6.315978820e-12
1.043641788e-11
1.651694236e-11
2.512761997e-11
3.537202783e-11
1.149213372e-11
2.710604502e-14
4.070702795e-14
3.826467764e-14
1.689299563e-14
2.008819646e-15
2.608642223e-17
1.048616387e-13
1.330149829e-13
2.023600986e-13
3.492104095e-13
6.456799849e-13
1.216027021e-12
2.249592438e-12
4.005768183e-12
6.814995701e-12
1.108804945e-11
1.733910380e-11
2.610184203e-11
3.600258449e-11
1.747369077e-12
2.791899692e-14
4.113771543e-14
3.756215143e-14
1.611244553e-14
1.851663114e-15
2.383826628e-17
1.379660419e-13
1.727224901e-13
2.566908797e-13
4.297329495e-13
7.686444695e-13
1.401953241e-12
2.521275843e-12
4.385736405e-12
7.323979131e-12
1.174516963e-11
1.815994027e-11
2.705658185e-11
3.648208815e-11
7.329423354e-14
2.873714986e-14
4.149519475e-14
3.685977706e-14
1.539174974e-14
1.714844414e-15
2.197679765e-17
1.782005376e-13
2.203389901e-13
3.203534568e-13
5.214188537e-13
9.045520394e-13
1.601926662e-12
2.806885350e-12
4.778031505e-12
7.842276861e-12
1.240727119e-11
1.897898430e-11
2.798981696e-11
3.678640656e-11
4.108452631e-14
2.954928951e-14
4.178591870e-14
3.616155708e-14
1.472521417e-14
1.595138654e-15
2.042292083e-17
2.262622245e-13
2.765222157e-13
3.938976833e-13
6.246148520e-13
1.053457320e-12
1.815684553e-12
3.105904818e-12
5.182023470e-12
8.369297259e-12
1.307388865e-11
1.979574787e-11
2.889921351e-11
3.688702669e-11
3.179388423e-14
3.034750068e-14
4.201579847e-14
3.547043190e-14
1.410762701e-14
1.489888225e-15
1.911616989e-17
2.827840764e-13
3.418534161e-13
4.777854863e-13
7.395749935e-13
1.215339590e-12
2.042925317e-12
3.417826883e-12
5.597117698e-12
8.904493523e-12
1.374461453e-11
2.060972653e-11
2.978210947e-11
3.675002127e-11
2.769647064e-14
3.112618780e-14
4.219042925e-14
3.478876432e-14
1.353435054e-14
1.396915564e-15
1.801030346e-17
3.483262505e-13
4.168337472e-13
5.723886495e-13
8.664705196e-13
1.390117892e-12
2.283321571e-12
3.742153129e-12
6.022771626e-12
9.447398293e-12
1.441908498e-11
2.142041032e-11
3.063536309e-11
3.633505470e-11
2.559887901e-14
3.188142457e-14
4.231482200e-14
3.411798376e-14
1.300105058e-14
1.314389497e-15
1.706777518e-17
4.233718656e-13
5.018830883e-13
6.779986727e-13
1.005396321e-12
1.577659070e-12
2.536531205e-12
4.078403020e-12
6.458466702e-12
9.997556535e-12
1.509693024e-11
2.222722324e-11
3.145543010e-11
3.559398867e-11
2.448112279e-14
3.261046696e-14
4.239351652e-14
3.345920610e-14
1.250381767e-14
1.240780454e-15
1.626242364e-17
5.083258071e-13
5.973422577e-13
7.948267388e-13
1.156384862e-12
1.777787284e-12
2.802194150e-12
4.426108608e-12
6.903729648e-12
1.055455856e-11
1.577783132e-11
2.302955723e-11
3.223815603e-11
3.446938648e-11
2.391597297e-14
3.331148561e-14
4.243083447e-14
3.281328187e-14
1.203923369e-14
1.174772331e-15
1.556496576e-17
6.035183491e-13
7.034760264e-13
9.230176596e-13
1.319407766e-12
1.990291174e-12
3.079947515e-12
4.784818540e-12
7.358105419e-12
1.111804155e-11
1.646147613e-11
2.382666468e-11
3.297874207e-11
3.289263068e-11
2.369246610e-14
3.398329484e-14
4.243053056e-14
3.218067326e-14
1.160433766e-14
1.115381837e-15
1.496229829e-17
7.092075992e-13
8.204803345e-13
1.062648072e-12
1.494393168e-12
2.214934921e-12
3.369425080e-12
5.154104636e-12
7.821180650e-12
1.168765200e-11
1.714754721e-11
2.461780874e-11
3.367162863e-11
3.078194955e-11
2.369405330e-14
3.462518086e-14
4.239606878e-14
3.156157012e-14
1.119634885e-14
1.061721021e-15
1.443898384e-17
8.255845213e-13
9.484859216e-13
1.213743142e-12
1.681221536e-12
2.451463510e-12
3.670261848e-12
5.533551628e-12
8.292565863e-12
1.226307258e-11
1.783573492e-11
2.540207340e-11
3.431039624e-11
2.804044994e-11
2.385090624e-14
3.523676344e-14
4.233043664e-14
3.095595700e-14
1.081276896e-14
1.013015514e-15
1.398179218e-17
9.527795140e-13
1.087566507e-12
1.376276594e-12
1.879747031e-12
2.699601579e-12
3.982093673e-12
5.922770698e-12
8.771896460e-12
1.284400527e-11
1.852572229e-11
2.617845300e-11
3.488764755e-11
2.455566691e-11
2.411835807e-14
3.581803900e-14
4.223646668e-14
3.036371143e-14
1.045133993e-14
9.686154437e-16
1.358048870e-17
1.090865058e-12
1.237745756e-12
1.550180132e-12
2.089788606e-12
2.959068599e-12
4.304572134e-12
6.321383388e-12
9.258830796e-12
1.343016598e-11
1.921716780e-11
2.694577597e-11
3.539480580e-11
2.020372128e-11
2.446649457e-14
3.636911780e-14
4.211660897e-14
2.978456767e-14
1.011007805e-14
9.279760421e-16
1.322660040e-17
1.239869065e-12
1.399001152e-12
1.735352704e-12
2.311148899e-12
3.229577777e-12
4.637343940e-12
6.729039353e-12
9.753064785e-12
1.402128480e-11
1.990973817e-11
2.770277002e-11
3.582194161e-11
1.486881946e-11
2.487433655e-14
3.689035283e-14
4.197312245e-14
2.921824950e-14
9.787192609e-15
8.906297765e-16
1.291310652e-17
1.399773148e-12
1.571272879e-12
1.931663111e-12
2.543610335e-12
3.510831516e-12
4.980077134e-12
7.145398457e-12
1.025427257e-11
1.461709335e-11
2.060304302e-11
2.844791788e-11
3.615757377e-11
8.515020527e-12
2.532670540e-14
3.738207442e-14
4.180803215e-14
2.866441973e-14
9.481079357e-15
8.561764158e-16
1.263404773e-17
1.570523739e-12
1.754469762e-12
2.138950697e-12
2.786940771e-12
3.802540617e-12
5.332448456e-12
7.570132155e-12
1.076219735e-11
1.521735614e-11
2.129668525e-11
2.917954547e-11
3.638842329e-11
1.592157996e-12
2.581230703e-14
3.784487304e-14
4.162319739e-14
2.812268472e-14
9.190308564e-15
8.242747599e-16
1.238446648e-17
1.752032797e-12
1.948469871e-12
2.357042712e-12
3.040903062e-12
4.104413376e-12
5.694133043e-12
8.002951203e-12
1.127655212e-11
1.582180825e-11
2.199024558e-11
2.989571069e-11
3.649899594e-11
9.748680049e-14
2.632245126e-14
3.827923301e-14
4.142020217e-14
2.759263305e-14
8.913584411e-15
7.946260103e-16
1.216003946e-17
1.944185994e-12
2.153127231e-12
2.585740400e-12
3.305248544e-12
4.416161700e-12
6.064831940e-12
8.443550432e-12
1.179710328e-11
1.643021289e-11
2.268320789e-11
3.059423030e-11
3.647140400e-11
5.122420748e-14
2.685045409e-14
3.868581319e-14
4.120058543e-14
2.707386381e-14
8.649758376e-15
7.669764787e-16
1.195715128e-17
2.146850702e-12
2.368282937e-12
2.824846549e-12
3.579725479e-12
4.737496952e-12
6.444251056e-12
8.891669205e-12
1.232358835e-11
1.704231493e-11
2.337503916e-11
3.127256710e-11
3.628479272e-11
3.777699219e-14
2.739091534e-14
3.906522946e-14
4.096568223e-14
2.656597609e-14
8.397786787e-15
7.411042146e-16
1.177266950e-17
2.359868161e-12
2.593754929e-12
3.074139606e-12
3.864087844e-12
5.068152492e-12
6.832109614e-12
9.347031503e-12
1.285578846e-11
1.765785501e-11
2.406518889e-11
3.192792763e-11
3.591488934e-11
3.161814984e-14
2.793949050e-14
3.941807745e-14
4.071674303e-14
2.606855308e-14
8.156730171e-15
7.168168301e-16
1.160382791e-17
2.583069523e-12
2.829357217e-12
3.333399800e-12
4.158076039e-12
5.407846003e-12
7.228139353e-12
9.809404739e-12
1.339347190e-11
1.827656998e-11
2.475294968e-11
3.255708325e-11
3.533335614e-11
2.824126979e-14
2.849264894e-14
3.974504107e-14
4.045480904e-14
2.558119104e-14
7.925747511e-15
6.939443520e-16
1.144832637e-17
2.816274307e-12
3.074887739e-12
3.602406447e-12
4.461445709e-12
5.756317414e-12
7.632081291e-12
1.027853881e-11
1.393642455e-11
1.889820193e-11
2.543762436e-11
3.315630515e-11
3.450716531e-11
2.622218395e-14
2.904744219e-14
4.004678004e-14
4.018096487e-14
2.510352115e-14
7.704079737e-15
6.723412228e-16
1.130412324e-17
3.059289736e-12
3.330142272e-12
3.880928043e-12
4.773946546e-12
6.113310962e-12
8.043680467e-12
1.075421111e-11
1.448443806e-11
1.952243323e-11
2.611836729e-11
3.372142757e-11
3.339769525e-11
2.496868102e-14
2.960137414e-14
4.032395461e-14
3.989609262e-14
2.463513358e-14
7.491040275e-15
6.518779310e-16
1.116940798e-17
3.311920049e-12
3.594914122e-12
4.168740949e-12
5.095342859e-12
6.478582859e-12
8.462706663e-12
1.123621058e-11
1.503729376e-11
2.014898770e-11
2.679425478e-11
3.424767277e-11
3.195971856e-11
2.419023309e-14
3.015236680e-14
4.057713512e-14
3.960102372e-14
2.417569771e-14
7.286010058e-15
6.324442722e-16
1.104268889e-17
3.573959221e-12
3.868985846e-12
4.465617292e-12
5.425384134e-12
6.851882377e-12
8.888925876e-12
1.172431691e-11
1.559478418e-11
2.077751192e-11
2.746429264e-11
3.472964709e-11
3.014069368e-11
2.372741500e-14
3.069860303e-14
4.080706769e-14
3.929655766e-14
2.372484835e-14
7.088420837e-15
6.139403806e-16
1.092251593e-17
3.845206843e-12
4.152145662e-12
4.771327709e-12
5.763844370e-12
7.232990713e-12
9.322125052e-12
1.221833811e-11
1.615670852e-11
2.140766598e-11
2.812727232e-11
3.516109206e-11
2.787946232e-11
2.348525946e-14
3.123857176e-14
4.101425550e-14
3.898338916e-14
2.328228218e-14
6.897770917e-15
5.962782883e-16
1.080773765e-17
4.125452275e-12
4.444182725e-12
5.085653878e-12
6.110500203e-12
7.621683088e-12
9.762091676e-12
1.271806730e-11
1.672284575e-11
2.203904942e-11
2.878193336e-11
3.553497738e-11
2.510633844e-11
2.340358509e-14
3.177099132e-14
4.119938617e-14
3.866216483e-14
2.284766927e-14
6.713601136e-15
5.793818359e-16
1.069735568e-17
4.414491927e-12
4.744883167e-12
5.408379890e-12
6.465124133e-12
8.017734898e-12
1.020862092e-11
1.322332466e-11
1.729297670e-11
2.267127469e-11
2.942680923e-11
3.584317881e-11
2.174409003e-11
2.344224365e-14
3.229460206e-14
4.136298782e-14
3.833348296e-14
2.242073240e-14
6.535493087e-15
5.631830547e-16
1.059043944e-17
4.712116354e-12
5.054037218e-12
5.739287552e-12
6.827510689e-12
8.420945829e-12
1.066151563e-11
1.373392185e-11
1.786688609e-11
2.330383758e-11
3.006027477e-11
3.607654634e-11
1.771400891e-11
2.357333218e-14
3.280849473e-14
4.150573692e-14
3.799791265e-14
2.200121243e-14
6.363070244e-15
5.476225364e-16
1.048619707e-17
5.018129951e-12
5.371439739e-12
6.078170702e-12
7.197443487e-12
8.831117497e-12
1.112059739e-11
1.424967573e-11
1.844433853e-11
2.393627340e-11
3.068046637e-11
3.622440808e-11
1.295436247e-11
2.377682572e-14
3.331171106e-14
4.162809572e-14
3.765597899e-14
2.158881934e-14
6.195992232e-15
5.326489071e-16
1.038390932e-17
5.332327894e-12
5.696890561e-12
6.424829565e-12
7.574720952e-12
9.248047781e-12
1.158568197e-11
1.477040272e-11
1.902508437e-11
2.456801433e-11
3.128530851e-11
3.627473161e-11
7.476175709e-12
2.403789545e-14
3.380353986e-14
4.173069811e-14
3.730813230e-14
2.118333735e-14
6.033946521e-15
5.182141188e-16
1.028297253e-17
5.654512240e-12
6.030190532e-12
6.779059601e-12
7.959160142e-12
9.671554617e-12
1.205658847e-11
1.529591875e-11
1.960887031e-11
2.519842802e-11
3.187251705e-11
3.621360676e-11
1.658445790e-12
2.434523105e-14
3.428324979e-14
4.181400937e-14
3.695483386e-14
2.078452425e-14
5.876641531e-15
5.042746887e-16
1.018282143e-17
5.984492761e-12
6.371139182e-12
7.140667502e-12
8.350561063e-12
1.010147051e-11
1.253314857e-11
1.582604394e-11
2.019543078e-11
2.582687341e-11
3.243942888e-11
3.602498371e-11
1.160977876e-13
2.469007043e-14
3.475030335e-14
4.187865002e-14
3.659650264e-14
2.039219470e-14
5.723830245e-15
4.907953724e-16
1.008297035e-17
6.322076977e-12
6.719561108e-12
7.509474101e-12
8.748748840e-12
1.053760846e-11
1.301519811e-11
1.636059798e-11
2.078446785e-11
2.645256261e-11
3.298308658e-11
3.569052798e-11
5.827179648e-14
2.506541570e-14
3.520413549e-14
4.192503808e-14
3.623353848e-14
2.000611169e-14
5.575263646e-15
4.777426229e-16
9.983086295e-18
6.667082412e-12
7.075261586e-12
7.885290250e-12
9.153543207e-12
1.097980078e-11
1.350256205e-11
1.689938745e-11
2.137568606e-11
2.707468486e-11
3.350016257e-11
3.518903304e-11
4.186193692e-14
2.546565669e-14
3.564432315e-14
4.195375486e-14
3.586628702e-14
1.962611855e-14
5.430728442e-15
4.650875137e-16
9.882756649e-18
7.019328703e-12
7.438070392e-12
8.267950675e-12
9.564776733e-12
1.142789391e-11
1.399508680e-11
1.744222954e-11
2.196873234e-11
2.769231655e-11
3.398690894e-11
3.449599760e-11
3.433878974e-14
2.588615371e-14
3.607040969e-14
4.196524633e-14
3.549512975e-14
1.925203205e-14
5.290038730e-15
4.528033504e-16
9.781754092e-18
7.378647467e-12
7.807803026e-12
8.657273357e-12
9.982282779e-12
1.188171772e-11
1.449260915e-11
1.798890598e-11
2.256322759e-11
2.830437642e-11
3.443904335e-11
3.358312470e-11
3.015920628e-14
2.632302806e-14
3.648210912e-14
4.196001241e-14
3.512034335e-14
1.888370151e-14
5.153000464e-15
4.408685470e-16
9.679855777e-18
7.744857447e-12
8.184303029e-12
9.053093087e-12
1.040590504e-11
1.234111880e-11
1.499497124e-11
1.853922530e-11
2.315880160e-11
2.890975402e-11
3.485179903e-11
3.241776051e-11
2.759817991e-14
2.677304337e-14
3.687903786e-14
4.193850612e-14
3.474228623e-14
1.852096069e-14
5.019455992e-15
4.292625578e-16
9.576862130e-18
8.117800304e-12
8.567397369e-12
9.455263224e-12
1.083548343e-11
1.280595554e-11
1.550200733e-11
1.909296054e-11
2.375499157e-11
2.950716935e-11
3.521970409e-11
3.096212822e-11
2.594498778e-14
2.723341235e-14
3.726103047e-14
4.190120799e-14
3.436124273e-14
1.816368717e-14
4.889257570e-15
4.179655031e-16
9.472607125e-18
8.497321413e-12
8.956932475e-12
9.863618117e-12
1.127086693e-11
1.327606850e-11
1.601354494e-11
1.964989933e-11
2.435133648e-11
3.009516399e-11
3.553659700e-11
2.917273873e-11
2.485318072e-14
2.770164249e-14
3.762779706e-14
4.184852073e-14
3.397748026e-14
1.781175234e-14
4.762262233e-15
4.069623324e-16
9.366906437e-18
8.883253246e-12
9.352761765e-12
1.027800178e-11
1.171191505e-11
1.375130427e-11
1.652943843e-11
2.020976255e-11
2.494731074e-11
3.067214569e-11
3.579552256e-11
2.699987343e-11
2.413361359e-14
2.817567928e-14
3.797918897e-14
4.178094989e-14
3.359126590e-14
1.746500976e-14
4.638348670e-15
3.962364055e-16
9.259658061e-18
9.275452591e-12
9.754715198e-12
1.069828068e-11
1.215848110e-11
1.423153063e-11
1.704950046e-11
2.077231297e-11
2.554233861e-11
3.123631884e-11
3.598851826e-11
2.438744241e-11
2.367414721e-14
2.865359894e-14
3.831500506e-14
4.169888539e-14
3.320285796e-14
1.712336821e-14
4.517383438e-15
3.857752875e-16
9.150749617e-18
9.673771862e-12
1.016267225e-11
1.112430774e-11
1.261042099e-11
1.471660019e-11
1.757355818e-11
2.133726900e-11
2.613577206e-11
3.178566980e-11
3.610659728e-11
2.127452590e-11
2.340395262e-14
2.913377463e-14
3.863516470e-14
4.160275038e-14
3.281250076e-14
1.678671225e-14
4.399266454e-15
3.755660551e-16
9.040130412e-18
1.007806203e-11
1.057647138e-11
1.155594254e-11
1.306759742e-11
1.520635409e-11
1.810143898e-11
2.190430976e-11
2.672692350e-11
3.231799325e-11
3.613949239e-11
1.759968092e-11
2.327606849e-14
2.961472092e-14
3.893959461e-14
4.149297266e-14
3.242042693e-14
1.645494835e-14
4.283892493e-15
3.655976913e-16
8.927761753e-18
1.048819298e-11
1.099598691e-11
1.199304318e-11
1.352987282e-11
1.570064974e-11
1.863294196e-11
2.247313810e-11
2.731499553e-11
3.283073936e-11
3.607551756e-11
1.331421992e-11
2.325799253e-14
3.009508236e-14
3.922816542e-14
4.136994362e-14
3.202684813e-14
1.612798309e-14
4.171181764e-15
3.558613493e-16
8.813689203e-18
1.090402864e-11
1.142107705e-11
1.243549306e-11
1.399711927e-11
1.619933198e-11
1.916786085e-11
2.304338228e-11
2.789912989e-11
3.332108392e-11
3.590129345e-11
8.417491020e-12
2.332646680e-14
3.057366244e-14
3.950083175e-14
4.123407323e-14
3.163199193e-14
1.580571548e-14
4.061031391e-15
3.463483494e-16
8.697909423e-18
1.132542561e-11
1.185161905e-11
1.288313736e-11
1.446918713e-11
1.670226872e-11
1.970599484e-11
2.361464669e-11
2.847837807e-11
3.378589502e-11
3.560158638e-11
3.085897935e-12
2.346439436e-14
3.104933079e-14
3.975762327e-14
4.108573459e-14
3.123604110e-14
1.548809047e-14
3.953372753e-15
3.370509622e-16
8.580455507e-18
1.175226416e-11
1.228747316e-11
1.333586660e-11
1.494594564e-11
1.720927738e-11
2.024711248e-11
2.418651332e-11
2.905168668e-11
3.422158742e-11
3.515896229e-11
1.879784697e-13
2.365880202e-14
3.152111281e-14
3.999847076e-14
4.092535848e-14
3.083922533e-14
1.517501408e-14
3.848135733e-15
3.279630017e-16
8.461405050e-18
1.218442443e-11