/*--------------------------------*- C++ -*----------------------------------*\
| =========                 |                                                 |
| \\      /  F ield         | OpenFOAM: The Open Source CFD Toolbox           |
|  \\    /   O peration     | Version:  5.x                                   |
|   \\  /    A nd           | Web:      www.OpenFOAM.org                      |
|    \\/     M anipulation  |                                                 |
\*---------------------------------------------------------------------------*/
FoamFile
{
    version     2.0;
    format      ascii;
    class       volScalarField;
    location    "3.5";
    object       CH2*;
}
// * * * * * * * * * * * * * * * * * * * * * * * * * * * * * * * * * * * * * //

dimensions      [0 0 0 0 0 0 0];

internalField   nonuniform List<scalar>
51080
(
0.000000000e+00
0.000000000e+00
0.000000000e+00
0.000000000e+00
0.000000000e+00
0.000000000e+00
0.000000000e+00
0.000000000e+00
0.000000000e+00
0.000000000e+00
5.762973453e-25
1.095973129e-24
2.153214368e-24
5.030656761e-24
1.534300406e-23
6.337589203e-23
3.866830550e-22
4.202715995e-21
1.269811367e-19
2.499851118e-17
0.000000000e+00
0.000000000e+00
0.000000000e+00
0.000000000e+00
0.000000000e+00
0.000000000e+00
0.000000000e+00
0.000000000e+00
3.947642276e-25
6.709046116e-25
1.291255204e-24
2.578824040e-24
6.220513667e-24
2.012032633e-23
8.767467227e-23
5.655264763e-22
6.424909284e-21
1.711232132e-19
1.568377773e-17
2.000683643e-15
0.000000000e+00
0.000000000e+00
0.000000000e+00
0.000000000e+00
0.000000000e+00
0.000000000e+00
0.000000000e+00
4.547888146e-25
7.723247456e-25
1.498743064e-24
3.019679176e-24
7.310670712e-24
2.366718704e-23
1.012864869e-22
6.224138949e-22
6.404523836e-21
1.370034711e-19
7.677111556e-18
6.469023076e-16
1.686558240e-14
0.000000000e+00
0.000000000e+00
0.000000000e+00
0.000000000e+00
0.000000000e+00
3.484569979e-25
5.238437102e-25
8.701646395e-25
1.619253170e-24
3.408607260e-24
8.119450219e-24
2.583274726e-23
1.062884994e-22
6.013796172e-22
5.469183424e-21
9.331796936e-20
3.612410427e-18
2.316408331e-16
6.703213803e-15
5.970188417e-14
0.000000000e+00
0.000000000e+00
0.000000000e+00
0.000000000e+00
4.178838217e-25
6.169751459e-25
1.009861782e-24
1.863063870e-24
3.957466842e-24
8.795422011e-24
2.690411034e-23
1.044154105e-22
5.388796067e-22
4.296406335e-21
5.928137113e-20
1.669649760e-18
8.339755049e-17
2.683969769e-15
2.843040492e-14
1.413585288e-13
0.000000000e+00
3.326757813e-25
3.971146831e-25
5.173348769e-25
7.411803207e-25
1.181051249e-24
2.124708228e-24
4.399506982e-24
9.504183656e-24
2.718222257e-23
9.814071879e-23
4.595732791e-22
3.208758667e-21
3.629054171e-20
7.688488704e-19
2.970931865e-17
1.020359301e-15
1.331470403e-14
7.520877865e-14
2.702090511e-13
4.874493279e-25
5.439421790e-25
6.712039989e-25
9.180824188e-25
1.403573402e-24
2.428269972e-24
4.833942743e-24
1.002721112e-23
2.682108528e-23
8.936600802e-23
3.788661249e-22
2.317234736e-21
2.172671267e-20
3.545302708e-19
1.049515193e-17
3.588763123e-16
5.849988849e-15
3.931263848e-14
1.530781942e-13
4.547558356e-13
8.219430659e-25
9.344032723e-25
1.194355703e-24
1.720163956e-24
2.816200875e-24
5.312074941e-24
1.045399372e-23
2.590980723e-23
7.956750068e-23
3.053515888e-22
1.637727753e-21
1.284932659e-20
1.645353917e-19
3.713640257e-18
1.164791355e-16
2.328683790e-15
1.943144378e-14
8.575262499e-14
2.663183885e-13
6.941992730e-13
1.446060533e-24
1.675831670e-24
2.221461741e-24
3.374207166e-24
5.926481999e-24
1.088362179e-23
2.456702787e-23
6.877647182e-23
2.466323030e-22
1.150671581e-21
7.589834106e-21
7.739461885e-20
1.333442536e-18
3.552866162e-17
8.199565585e-16
8.781639150e-15
4.594648196e-14
1.554577212e-13
4.186491620e-13
8.601449918e-13
2.635311956e-24
3.113127085e-24
4.280250914e-24
6.859127389e-24
1.156750334e-23
2.358243388e-23
6.029649647e-23
1.944248691e-22
8.044131738e-22
4.509523623e-21
3.716211237e-20
4.924714270e-19
1.052474624e-17
2.539189681e-16
3.513994962e-15
2.284594471e-14
8.781121705e-14
2.500591653e-13
6.091022677e-13
1.074553771e-15
4.940967713e-24
5.929353434e-24
8.431751849e-24
1.277711559e-23
2.335359822e-23
5.402362488e-23
1.555088677e-22
5.653862925e-22
2.713911628e-21
1.833544657e-20
1.893312166e-19
3.142109529e-18
7.065367162e-17
1.212301332e-15
1.021569099e-14
4.668937290e-14
1.460237071e-13
3.705629900e-13
7.998115974e-13
8.107855065e-16
9.740521504e-24
1.141117138e-23
1.499243424e-23
2.438481055e-23
5.087306955e-23
1.288809785e-22
4.088616706e-22
1.678972164e-21
9.387513416e-21
7.661312835e-20
9.761552892e-19
1.853537580e-17
3.573095157e-16
3.975208666e-15
2.270328236e-14
8.130317433e-14
2.207873635e-13
5.160801025e-13
6.932425766e-13
1.241902873e-15
1.571972095e-23
1.893071498e-23
2.788337642e-23
5.080865851e-23
1.127946435e-22
3.102390540e-22
1.087588642e-21
5.057842456e-21
3.302706606e-20
3.238405557e-19
4.869246931e-18
9.221464569e-17
1.308897197e-15
9.776869665e-15
4.202875618e-14
1.268184275e-13
3.118560477e-13
6.767181901e-13
7.372000468e-16
1.702709240e-15
2.805736287e-23
3.563661211e-23
5.585024126e-23
1.067585779e-22
2.522709498e-22
7.517980808e-22
2.914275848e-21
1.537205300e-20
1.170696952e-19
1.351998057e-18
2.218718276e-17
3.621568338e-16
3.604456530e-15
1.958049676e-14
6.853068914e-14
1.828679005e-13
4.183349877e-13
8.038236215e-13
7.833451674e-16
2.024544968e-15
5.485595726e-23
7.046649498e-23
1.131189177e-22
2.258539046e-22
5.670168881e-22
1.828698380e-21
7.838540702e-21
4.687110235e-20
4.128080450e-19
5.396133694e-18
8.725036872e-17
1.108480692e-15
7.949925454e-15
3.389765874e-14
1.020425684e-13
2.488148189e-13
5.374611658e-13
6.755154161e-13
1.099872522e-15
2.126969697e-15
1.071744507e-22
1.395207451e-22
2.300697793e-22
4.793745891e-22
1.277080485e-21
4.453342051e-21
2.109048938e-20
1.424052001e-19
1.423568186e-18
1.985061446e-17
2.853748660e-16
2.721286632e-15
1.487356051e-14
5.282885881e-14
1.421017076e-13
3.238142868e-13
6.610087379e-13
1.008189305e-15
1.455834459e-15
2.019174356e-15
2.094128227e-22
2.764471446e-22
4.685407669e-22
1.018245212e-21
2.875920475e-21
1.083220083e-20
5.655011965e-20
4.273579573e-19
4.701061727e-18
6.505455044e-17
7.715447869e-16
5.595567080e-15
2.465065682e-14
7.618402676e-14
1.880955789e-13
4.066827758e-13
7.653365828e-13
6.713142352e-16
1.766557382e-15
1.766070882e-15
4.091236524e-22
5.476971697e-22
9.539321271e-22
2.160953501e-21
6.464562396e-21
2.625686777e-20
1.504129618e-19
1.252931862e-18
1.454057744e-17
1.857096309e-16
1.755199970e-15
1.003611176e-14
3.732753697e-14
1.036001951e-13
2.393427092e-13
4.955228881e-13
7.827098355e-13
8.348083583e-16
1.981501784e-15
1.446055371e-15
7.988127635e-22
1.084230541e-21
1.939765934e-21
4.576873765e-21
1.448399931e-20
6.326751674e-20
3.946226396e-19
3.542680921e-18
4.127659945e-17
4.591546595e-16
3.455539357e-15
1.621788600e-14
5.278380465e-14
1.346296437e-13
2.951170786e-13
5.869464742e-13
5.128525702e-13
1.068043550e-15
2.082741414e-15
1.122863566e-15
1.558106510e-21
2.143560188e-21
3.936956248e-21
9.666076147e-21
3.230093404e-20
1.510924759e-19
1.014271446e-18
9.532049828e-18
1.059609261e-16
9.917292859e-16
6.056892921e-15
2.419240982e-14
7.079592839e-14
1.687972390e-13
3.546311981e-13
6.745783742e-13
1.075915577e-15
1.315179502e-15
2.078128108e-15
8.356191791e-16
3.035106392e-21
4.230798560e-21
7.971437788e-21
2.033966250e-20
7.158573502e-20
3.563417085e-19
2.533923160e-18
2.410843599e-17
2.444829413e-16
1.902684357e-15
9.684308354e-15
3.391536996e-14
9.108733974e-14
2.056319913e-13
4.169806514e-13
7.461477474e-13
6.436149821e-16
1.545317079e-15
1.990285158e-15
6.011634996e-16
5.902917180e-21
8.333867474e-21
1.609419980e-20
4.260477751e-20
1.573532994e-19
8.263782568e-19
6.102249747e-18
5.674168453e-17
5.081747051e-16
3.304328169e-15
1.439991628e-14
4.527839803e-14
1.133641907e-13
2.446815100e-13
4.810523481e-13
7.777511910e-13
6.987598961e-16
1.739217395e-15
1.846508198e-15
4.212005726e-16
1.145945326e-20
1.637801663e-20
3.238270281e-20
8.873631194e-20
3.422266051e-19
1.875102260e-18
1.405799246e-17
1.235435761e-16
9.595245738e-16
5.287195999e-15
2.021185054e-14
5.813602351e-14
1.373369639e-13
2.855150037e-13
5.453864086e-13
7.221810138e-13
8.216528147e-16
1.887232039e-15
1.672073374e-15
2.893707594e-16
2.219848707e-20
3.209774548e-20
6.488435716e-20
1.835013440e-19
7.342889097e-19
4.140648506e-18
3.076691436e-17
2.485346591e-16
1.664612388e-15
7.913443910e-15
2.708778610e-14
7.232668177e-14
1.627336947e-13
3.277187814e-13
6.079796988e-13
4.856918022e-13
9.683438989e-16
1.987324343e-15
1.486984862e-15
1.962818749e-16
4.288838772e-20
6.269220938e-20
1.293321700e-19
3.760659581e-19
1.549001218e-18
8.852145742e-18
6.364104873e-17
4.632822880e-16
2.685363901e-15
1.121686208e-14
3.496842869e-14
8.768649680e-14
1.893057361e-13
3.708862946e-13
6.660004027e-13
4.456691439e-15
1.121776782e-15
2.042682855e-15
1.305242663e-15
1.324157962e-16
8.258848249e-20
1.219271539e-19
2.561113901e-19
7.620549637e-19
3.200543319e-18
1.823382436e-17
1.240811901e-16
8.047858636e-16
4.073945986e-15
1.520693429e-14
4.377883083e-14
1.040582586e-13
2.168300394e-13
4.146058381e-13
7.153779887e-13
7.382610106e-16
1.271908516e-15
2.059469372e-15
1.135512029e-15
8.951495480e-17
1.583641594e-19
2.358450663e-19
5.029967388e-19
1.522807733e-18
6.452040722e-18
3.603366019e-17
2.279862858e-16
1.312282753e-15
5.870016006e-15
1.987423269e-14
5.343695225e-14
1.212970516e-13
2.451076049e-13
4.584443198e-13
7.502003441e-13
6.296920784e-16
1.412264181e-15
2.045053223e-15
9.823178371e-16
6.106346914e-17
3.020082384e-19
4.530479122e-19
9.777245622e-19
2.991844349e-18
1.264513072e-17
6.811208791e-17
3.955584620e-16
2.023964807e-15
8.100317065e-15
2.519596653e-14
6.385965354e-14
1.392719719e-13
2.739619348e-13
5.019301282e-13
7.618230215e-13
6.483967990e-16
1.538866847e-15
2.006806852e-15
8.473032554e-16
4.227328515e-17
5.719152265e-19
8.626953751e-19
1.876465383e-18
5.761143300e-18
2.400989975e-17
1.229549433e-16
6.503827902e-16
2.974362906e-15
1.077984366e-14
3.114058251e-14
7.496689439e-14
1.578673608e-13
3.032348117e-13
5.445320399e-13
7.375430169e-13
7.042655256e-16
1.649641929e-15
1.951397674e-15
7.302790654e-16
2.981891591e-17
1.073465749e-18
1.624941510e-18
3.546367262e-18
1.084152192e-17
4.404015413e-17
2.119533139e-16
1.018008914e-15
4.192716881e-15
1.391375105e-14
3.767162829e-14
8.668363623e-14
1.769822237e-13
3.327838271e-13
5.856329955e-13
6.586686830e-13
7.762850447e-16
1.743922388e-15
1.884475205e-15
6.300113634e-16
2.148334301e-17
1.992761664e-18
3.020264318e-18
6.582206934e-18
1.987963478e-17
7.788018606e-17
3.493364681e-16
1.524379799e-15
5.702269433e-15
1.749944104e-14
4.475062584e-14
9.894176759e-14
1.965290008e-13
3.624783748e-13
6.245030234e-13
4.982679435e-13
8.560342209e-16
1.822029164e-15
1.810592383e-15
5.447661111e-16
1.582664011e-17
3.650131451e-18
5.525634497e-18
1.196723417e-17
3.542690556e-17
1.326421332e-16
5.517388451e-16
2.194419710e-15
7.520290093e-15
2.152860283e-14
5.233890933e-14
1.116800619e-13
2.164325798e-13
3.921949285e-13
6.602608965e-13
2.241528670e-13
9.390129583e-16
1.884924007e-15
1.733258036e-15
4.726433347e-16
1.192441694e-17
6.581166192e-18
9.927032244e-18
2.125785446e-17
6.123355702e-17
2.175719280e-16
8.374886021e-16
3.050945350e-15
9.658552817e-15
2.598884599e-14
6.039915744e-14
1.248443617e-13
2.366282579e-13
4.218146159e-13
6.918314416e-13
2.055204450e-15
1.022421752e-15
1.933948381e-15
1.655083822e-15
4.117847651e-16
9.184583135e-18
1.165309974e-17
1.746989566e-17
3.680888313e-17
1.025203273e-16
3.440030143e-16
1.225750882e-15
4.113981147e-15
1.212401911e-14
3.086524854e-14
6.889613809e-14
1.383873894e-13
2.570605225e-13
4.512178170e-13
7.178903798e-13
8.260442090e-16
1.104390475e-15
1.970614501e-15
1.577942161e-15
3.604799393e-16
7.225960116e-18
2.021612950e-17
3.004724769e-17
6.201658822e-17
1.661721536e-16
5.250938747e-16
1.735678913e-15
5.400444920e-15
1.491964821e-14
3.614132737e-14
7.779704574e-14
1.522676388e-13
2.776815229e-13
4.802825080e-13
7.367951479e-13
6.590230635e-16
1.183648163e-15
1.996475791e-15
1.503112787e-15
3.172157843e-16
5.800997208e-18
3.428854076e-17
5.041246857e-17
1.015440429e-16
2.608043580e-16
7.753879416e-16
2.385686370e-15
6.924056303e-15
1.804521532e-14
4.179991491e-14
8.707217231e-14
1.664498110e-13
2.984493018e-13
5.088781229e-13
7.464949448e-13
6.175995545e-16
1.259340877e-15
2.013026681e-15
1.431419394e-15
2.806814375e-16
4.746650477e-18
5.675923592e-17
8.239061888e-17
1.614863739e-16
3.966744185e-16
1.110272688e-15
3.192865048e-15
8.695497417e-15
2.149795966e-14
4.782382832e-14
9.669437067e-14
1.809031135e-13
3.193264804e-13
5.368634366e-13
7.444225852e-13
6.170577253e-16
1.330926731e-15
2.021654571e-15
1.363344858e-15
2.497560442e-16
3.953297107e-18
9.158279827e-17
1.310542062e-16
2.494381269e-16
5.854493454e-16
1.545409710e-15
4.172635572e-15
1.072268207e-14
2.527321127e-14
5.419622411e-14
1.066393120e-13
1.956009312e-13
3.402793469e-13
5.640791947e-13
7.273509365e-13
6.352442817e-16
1.398092792e-15
2.023615464e-15
1.299131578e-15
2.235046318e-16
3.347147195e-18
1.439336551e-16
2.028290352e-16
3.744416402e-16
8.398560291e-16
2.096217362e-15
5.338484848e-15
1.301102158e-14
2.936495944e-14
6.090092758e-14
1.168854922e-13
2.105208604e-13
3.612765863e-13
5.903461746e-13
6.912216777e-13
6.636497841e-16
1.460698767e-15
2.020022471e-15
1.238844742e-15
2.011470037e-16
2.877556909e-18
2.202892249e-16
3.055041986e-16
5.468156366e-16
1.173271422e-15
2.777425424e-15
6.701949820e-15
1.556384655e-14
3.376615203e-14
6.792248656e-14
1.274134308e-13
2.256429389e-13
3.822881906e-13
6.154577775e-13
6.309549809e-13
6.981993490e-16
1.518729218e-15
2.011836657e-15
1.182429997e-15
1.820358802e-16
2.508933571e-18
3.284233493e-16
4.481360465e-16
7.778884815e-16
1.599302665e-15
3.602748362e-15
8.272606972e-15
1.838265532e-14
3.846926784e-14
7.524654559e-14
1.382060932e-13
2.409503091e-13
4.032838104e-13
6.391739363e-13
5.403211106e-13
7.366325665e-16
1.572257810e-15
1.999885577e-15
1.129747958e-15
1.656348415e-16
2.216119461e-18
4.772970862e-16
6.408577554e-16
1.079672750e-15
2.131388273e-15
4.584656551e-15
1.005816959e-14
2.146743916e-14
4.346627777e-14
8.285973533e-14
1.492483277e-13
2.564280824e-13
4.242329776e-13
6.612142184e-13
4.122122725e-13
7.775560167e-16
1.621423230e-15
1.984877996e-15
1.080608070e-15
1.514939908e-16
1.980562210e-18
6.768707824e-16
8.946180613e-16
1.464507981e-15
2.782468093e-15
5.734254558e-15
1.206466032e-14
2.481704408e-14
4.874907364e-14
9.074935036e-14
1.605268305e-13
2.720626919e-13
4.451029205e-13
6.812486299e-13
2.408420120e-13
8.200425909e-16
1.666405961e-15
1.967412824e-15
1.034800987e-15
1.392477475e-16
1.789019513e-18
9.378468690e-16
1.220875889e-15
1.944738101e-15
3.564718721e-15
7.061207487e-15
1.429655734e-14
2.842925480e-14
5.430956405e-14
9.890404478e-14
1.720295230e-13
2.878423046e-13
4.658582976e-13
6.988870282e-13
3.644591528e-14
8.634419672e-16
1.707409996e-15
1.947989682e-15
9.921043218e-16
1.285988818e-16
1.632048175e-18
1.271383730e-15
1.631296461e-15
2.532394780e-15
4.489365932e-15
8.573777052e-15
1.675694194e-14
3.230113923e-14
6.013974119e-14
1.073132124e-13
1.837460104e-13
3.037555497e-13
4.864597194e-13
7.136688092e-13
1.569425824e-15
9.072744655e-16
1.744654650e-15
1.927024995e-15
9.522895710e-16
1.192966859e-16
1.502246462e-18
1.688808943e-15
2.137453080e-15
3.238964291e-15
5.566555461e-15
1.027883510e-14
1.944775428e-14
3.642922372e-14
6.623187240e-14
1.159671657e-13
1.956670034e-13
3.197920395e-13
5.068630977e-13
7.250447403e-13
9.077495119e-16
9.511818984e-16
1.778364382e-15
1.904865117e-15
9.151321449e-16
1.111332414e-16
1.394024707e-18
2.201338057e-15
2.750584579e-15
4.075189813e-15
6.805312261e-15
1.218200015e-14
2.236989360e-14
4.080953354e-14
7.257843755e-14
1.248570059e-13
2.077839317e-13
3.359412139e-13
5.270181152e-13
7.323635351e-13
7.235192203e-16
9.948889563e-16
1.808758067e-15
1.881791163e-15
8.804160201e-16
1.039360009e-16
1.303115738e-18
2.819852688e-15
3.481377187e-15
5.050959212e-15
8.213500943e-15
1.428768488e-14
2.552335448e-14
4.543782306e-14
7.917214714e-14
1.339744109e-13
2.200892816e-13
3.521923854e-13
5.468676760e-13
7.348473315e-13
6.480409351e-16
1.038180618e-15
1.836055244e-15
1.858044362e-15
8.479432697e-16
9.756271270e-17
1.226261048e-18
3.554703141e-15
4.339817772e-15
6.175178512e-15
9.797868178e-15
1.659925461e-14
2.890741392e-14
5.030961620e-14
8.600625151e-14
1.433122507e-13
2.325763508e-13
3.685349413e-13
5.663446506e-13
7.315684254e-13
6.148811407e-16
1.080889896e-15
1.860460700e-15
1.833805397e-15
8.175187004e-16
9.189274949e-17
1.160816381e-18
4.415561373e-15
5.335082286e-15
7.455799431e-15
1.156406147e-14
1.911911076e-14
3.252080051e-14
5.542037721e-14
9.307414211e-14
1.528635054e-13
2.452383856e-13
3.849571693e-13
5.853733040e-13
7.214168038e-13
6.028059557e-16
1.122884988e-15
1.882168833e-15
1.809232760e-15
7.889642973e-16
8.682537138e-17
1.104946809e-18
5.411314605e-15
6.475473642e-15
8.899746599e-15
1.351675740e-14
2.184880362e-14
3.636166649e-14
6.076546584e-14
1.003697290e-13
1.626218374e-13
2.580695909e-13
4.014468772e-13
6.038647483e-13
7.030663191e-13
6.029063752e-16
1.164063362e-15
1.901371942e-15
1.784460510e-15
7.621216539e-16
8.227305630e-17
1.056600722e-18
6.550024636e-15
7.768381222e-15
1.051302723e-14
1.565964791e-14
2.478912337e-14
4.042782110e-14
6.634022788e-14
1.078870367e-13
1.725816500e-13
2.710643786e-13
4.179892844e-13
6.217160352e-13
6.749323282e-13
6.107686600e-16
1.204344068e-15
1.918240712e-15
1.759590332e-15
7.368498302e-16
7.817027932e-17
1.014853755e-18
7.838886067e-15
9.220303872e-15
1.230066161e-14
1.799564036e-14
2.794025066e-14
4.471674458e-14
7.214012676e-14
1.156206107e-13
1.827374605e-13
2.842171112e-13
4.345699022e-13
6.388073651e-13
6.351305997e-13
6.239406716e-16
1.243663785e-15
1.932938124e-15
1.734704432e-15
7.130133264e-16
7.445762996e-17
9.786262863e-19
9.284226153e-15
1.083684181e-14
1.426685535e-14
2.052678677e-14
3.130183780e-14
4.922567592e-14
7.816061300e-14
1.235652568e-13
1.930843793e-13
2.975223645e-13
4.511708189e-13
6.549997890e-13
5.814400824e-13
6.409409697e-16
1.281971890e-15
1.945609241e-15
1.709866096e-15
6.904889813e-16
7.108310391e-17
9.469944263e-19
1.089153557e-14
1.262275614e-14
1.641497364e-14
2.325455871e-14
3.487299832e-14
5.395162449e-14
8.439735998e-14
1.317160784e-13
2.036178353e-13
3.109746479e-13
4.677723514e-13
6.701322904e-13
5.113088549e-13
6.608098461e-16
1.319234644e-15
1.956394597e-15
1.685127402e-15
6.691634063e-16
6.800291876e-17
9.192437310e-19
1.266546102e-14
1.458202451e-14
1.874764219e-14
2.617972431e-14
3.865253219e-14
5.889161620e-14
9.084603440e-14
1.400684594e-13
2.143334899e-13
3.245680690e-13
4.843515516e-13
6.840171727e-13
4.219807964e-13
6.828943261e-16
1.355422802e-15
1.965419095e-15
1.660526343e-15
6.489364483e-16
6.518028434e-17
8.947833382e-19
1.460994274e-14
1.671786610e-14
2.126685766e-14
2.930260570e-14
4.263892550e-14
6.404240168e-14
9.750259683e-14
1.486183411e-13
2.252272553e-13
3.382969525e-13
5.008834281e-13
6.964358755e-13
3.109971926e-13
7.067264020e-16
1.390519330e-15
1.972800606e-15
1.636095068e-15
6.297161708e-16
6.258354370e-17
8.731241766e-19
1.672816981e-14
1.903283924e-14
2.397401551e-14
3.262303006e-14
4.683029372e-14
6.940086845e-14
1.043630388e-13
1.573612183e-13
2.362950581e-13
3.521546013e-13
5.173379539e-13
7.071341997e-13
1.779082928e-13
7.319584100e-16
1.424507677e-15
1.978646630e-15
1.611858682e-15
6.114197117e-16
6.018553051e-17
8.538514953e-19
1.902270687e-14
2.152890886e-14
2.686991374e-14
3.614041291e-14
5.122467848e-14
7.496387480e-14
1.114234157e-13
1.662937047e-13
2.475334355e-13
3.661342352e-13
5.336818781e-13
7.158164583e-13
3.313044215e-14
7.583239255e-16
1.457383654e-15
1.983058012e-15
1.587833621e-15
5.939724191e-16
5.796302854e-17
8.366206406e-19
2.149549132e-14
2.420744670e-14
2.995499191e-14
3.985390293e-14
5.581989991e-14
8.072809689e-14
1.186803179e-13
1.754118476e-13
2.589384022e-13
3.802286985e-13
5.498762708e-13
7.221357901e-13
2.065256208e-15
7.856097554e-16
1.489140152e-15
1.986122478e-15
1.564032524e-15
5.773060117e-16
5.589567133e-17
8.211312944e-19
2.414793464e-14
2.706931660e-14
3.322913941e-14
4.376229638e-14
6.061366150e-14
8.669047573e-14
1.261299807e-13
1.847125762e-13
2.705064933e-13
3.944290153e-13
5.658770952e-13
7.256896356e-13
1.111022585e-15
8.136462013e-16
1.519779840e-15
1.987926157e-15
1.540464662e-15
5.613597237e-16
5.396614053e-17
8.071325373e-19
2.698102924e-14
3.011502906e-14
3.669208865e-14
4.786416867e-14
6.560349927e-14
9.284790434e-14
1.337692908e-13
1.941922851e-13
2.822339265e-13
4.087258903e-13
5.816327251e-13
7.260063446e-13
8.382086542e-16
8.422891365e-16
1.549304620e-15
1.988545984e-15
1.517136865e-15
5.460777337e-16
5.215925786e-17
7.944071791e-19
2.999523838e-14
3.334459960e-14
4.034305295e-14
5.215801564e-14
7.078713957e-14
9.919737145e-14
1.415948081e-13
2.038481047e-13
2.941168675e-13
4.231097329e-13
5.970858793e-13
7.225347699e-13
7.170876679e-16
8.714171283e-16
1.577716928e-15
1.988054457e-15
1.494051901e-15
5.314095755e-16
5.046184181e-17
7.827635333e-19
3.319071934e-14
3.675782313e-14
4.418110530e-14
5.664197529e-14
7.616193228e-14
1.057359645e-13
1.496037525e-13
2.136769161e-13
3.061514133e-13
4.375678708e-13
6.121698405e-13
7.146290587e-13
6.541566038e-16
9.009266074e-16
1.605025105e-15
1.986513007e-15
1.471211163e-15
5.173097937e-16
4.886223036e-17
7.720423376e-19
3.656730726e-14
4.035410596e-14
4.820515155e-14
6.131426944e-14
8.172544711e-14
1.124608267e-13
1.577929955e-13
2.236759045e-13
3.183337935e-13
4.520878480e-13
6.268068826e-13
7.015345798e-13
6.198673168e-16
9.307265066e-16
1.631237638e-15
1.983986462e-15
1.448615396e-15
5.037370723e-16
4.735042879e-17
7.621023260e-19
4.012450826e-14
4.413267189e-14
5.241379254e-14
6.617289725e-14
8.747520990e-14
1.193690811e-13
1.661598295e-13
2.338423392e-13
3.306591359e-13
4.666542321e-13
6.409094694e-13
6.823672484e-13
6.019339050e-16
9.607350273e-16
1.656364487e-15
1.980528794e-15
1.426261416e-15
4.906540296e-16
4.591753534e-17
7.528182902e-19
4.386164007e-14
4.809256493e-14
5.680560711e-14
7.121595564e-14
9.340883058e-14
1.264581819e-13
1.747016975e-13
2.441733074e-13
3.431233598e-13
4.812500219e-13
6.543764147e-13
6.560915140e-13
5.943273589e-16
9.908804282e-16
1.680411958e-15
1.976190825e-15
1.404148693e-15
4.780267520e-16
4.455596243e-17
7.440871368e-19
4.777773037e-14
5.223253482e-14
6.137898327e-14
7.644119571e-14
9.952371266e-14
1.337254521e-13
1.834158516e-13
2.546660832e-13
3.557209555e-13
4.958567331e-13
6.670926121e-13
6.215060562e-13
5.937384970e-16
1.021096078e-15
1.703396952e-15
1.971022357e-15
1.382272844e-15
4.658237425e-16
4.325883022e-17
7.358087141e-19
5.187175894e-14
5.655128571e-14
6.613216337e-14
8.184664338e-14
1.058176844e-13
1.411685053e-13
1.923000010e-13
2.653180741e-13
3.684466563e-13
5.104515248e-13
6.789234737e-13
5.772180126e-13
5.981935629e-16
1.051323368e-15
1.725325338e-15
1.965067152e-15
1.360632262e-15
4.540174900e-16
4.202007300e-17
7.279035412e-19
5.614242889e-14
6.104741579e-14
7.106344494e-14
8.743026623e-14
1.122884026e-13
1.487849074e-13
2.013515709e-13
2.761263106e-13
3.812940885e-13
5.250103931e-13
6.897167075e-13
5.216519997e-13
6.064394051e-16
1.081509708e-15
1.746212989e-15
1.958366993e-15
1.339221751e-15
4.425825523e-16
4.083443187e-17
7.203027358e-19
6.058843041e-14
6.571936493e-14
7.617106149e-14
9.318987640e-14
1.189334497e-13
1.565723074e-13
2.105684412e-13
2.870878732e-13
3.942571010e-13
5.395050325e-13
6.992951199e-13
4.530856288e-13
6.176371882e-16
1.111600258e-15
1.766069102e-15
1.950959543e-15
1.318038436e-15
4.314955146e-16
3.969721643e-17
7.129421010e-19
6.520825653e-14
7.056552837e-14
8.145311033e-14
9.912355374e-14
1.257507470e-13
1.645284396e-13
2.199483261e-13
2.981999020e-13
4.073273050e-13
5.539037336e-13
7.074577124e-13
3.698096607e-13
6.312005968e-16
1.141552349e-15
1.784911068e-15
1.942882540e-15
1.297079222e-15
4.207355468e-16
3.860431923e-17
7.057670740e-19
7.000050883e-14
7.558427358e-14
8.690778689e-14
1.052291254e-13
1.327381814e-13
1.726513281e-13
2.294890210e-13
3.094591947e-13
4.204970811e-13
5.681697403e-13
7.139686816e-13
2.705814508e-13
6.467059812e-16
1.171319426e-15
1.802746807e-15
1.934169989e-15
1.276338662e-15
4.102835632e-16
3.755219355e-17
6.987281139e-19
7.496354998e-14
8.077395453e-14
9.253330808e-14
1.115045841e-13
1.398935322e-13
1.809388594e-13
2.391882940e-13
3.208622656e-13
4.337567834e-13
5.822616389e-13
7.185604903e-13
1.559216304e-13
6.638367917e-16
1.200863772e-15
1.819593365e-15
1.924852181e-15
1.255814119e-15
4.001222054e-16
3.653751160e-17
6.917836597e-19
8.009576088e-14
8.613285663e-14
9.832773577e-14
1.179481668e-13
1.472148624e-13
1.893889495e-13
2.490439064e-13
3.324055871e-13
4.470954772e-13
5.961334832e-13
7.209222178e-13
3.446204829e-14
6.823474416e-16
1.230145145e-15
1.835460230e-15
1.914959348e-15
1.235501269e-15
3.902350049e-16
3.555726348e-17
6.848948217e-19
8.539555872e-14
9.165916231e-14
1.042892387e-13
1.245577712e-13
1.547004387e-13
1.979997180e-13
2.590536903e-13
3.440853938e-13
4.605020523e-13
6.097310866e-13
7.206931023e-13
2.446816666e-15
7.020451151e-16
1.259130682e-15
1.850365461e-15
1.904520289e-15
1.215397893e-15
3.806081991e-16
3.460901306e-17
6.780281965e-19
9.086124714e-14
9.735138147e-14
1.104161507e-13
1.313316534e-13
1.623481639e-13
2.067693297e-13
2.692154628e-13
3.558973334e-13
4.739624244e-13
6.229937276e-13
7.174594523e-13
1.253382605e-15
7.227717281e-16
1.287785235e-15
1.864317802e-15
1.893562037e-15
1.195498404e-15
3.712277478e-16
3.369043386e-17
6.711609260e-19
9.649121842e-14
1.032076485e-13
1.167065856e-13
1.382679359e-13
1.701562300e-13
2.156957389e-13
2.795268054e-13
3.678370881e-13
4.874620392e-13
6.358524504e-13
7.107406144e-13
9.185550998e-16
7.443981672e-16
1.316079092e-15
1.877334876e-15
1.882107891e-15
1.175801412e-15
3.620817393e-16
3.279952512e-17
6.642646540e-19
1.022838309e-13
1.092264258e-13
1.231589908e-13
1.453649107e-13
1.781230488e-13
2.247772776e-13
2.899854941e-13
3.798992622e-13
5.009840148e-13
6.482288890e-13
6.999797121e-13
7.682301581e-16
7.668141766e-16
1.343980566e-15
1.889427719e-15
1.870184121e-15
1.156303025e-15
3.531596637e-16
3.193443785e-17
6.573238342e-19
1.082375767e-13
1.154058934e-13
1.297714919e-13
1.526208419e-13
1.862467158e-13
2.340120862e-13
3.005886556e-13
3.920779423e-13
5.145081956e-13
6.600327656e-13
6.845320029e-13
6.875562143e-16
7.899242904e-16
1.371464779e-15
1.900611277e-15
1.857810354e-15
1.137001273e-15
3.444506649e-16
3.109367760e-17
6.503231848e-19
1.143506815e-13
1.217446309e-13
1.365424428e-13
1.600341391e-13
1.945255956e-13
2.433983950e-13
3.113339169e-13
4.043673901e-13
5.280137827e-13
6.711627657e-13
6.636525969e-13
6.407976846e-16
8.136466338e-16
1.398502113e-15
1.910898367e-15
1.845010923e-15
1.117892600e-15
3.359458428e-16
3.027582100e-17
6.432490558e-19
1.206216950e-13
1.282409028e-13
1.434704699e-13
1.676031133e-13
2.029582455e-13
2.529342946e-13
3.222182448e-13
4.167600820e-13
5.414763942e-13
6.815016276e-13
6.364799457e-13
6.132337506e-16
8.379074556e-16
1.425072556e-15
1.920304096e-15
1.831806326e-15
1.098975510e-15
3.276369867e-16
2.947949314e-17
6.360901206e-19
1.270491810e-13
1.348932487e-13
1.505538441e-13
1.753261995e-13
2.115428851e-13
2.626177376e-13
3.332388854e-13
4.292484993e-13
5.548678952e-13
6.909163733e-13
6.020238639e-13
5.976903305e-16
8.626374785e-16
1.451149713e-15
1.928839521e-15
1.818214782e-15
1.080248122e-15
3.195160318e-16
2.870365204e-17
6.288337740e-19
1.336314450e-13
1.417002883e-13
1.577909643e-13
1.832019983e-13
2.202778321e-13
2.724471704e-13
3.443918368e-13
4.418238511e-13
5.681572270e-13
6.992557978e-13
5.591571825e-13
5.902520510e-16
8.877782433e-16
1.476714076e-15
1.936521967e-15
1.804256024e-15
1.061706640e-15
3.115762411e-16
2.794714362e-17
6.214731425e-19
1.403671594e-13
1.486602099e-13
1.651805810e-13
1.912289786e-13
2.291617714e-13
2.824202763e-13
3.556738883e-13
4.544763485e-13
5.813089401e-13
7.063456520e-13
5.066180975e-13
5.885975534e-16
9.132714232e-16
1.501743320e-15
1.943363097e-15
1.789947795e-15
1.043350907e-15
3.038100061e-16
2.720910869e-17
6.140005634e-19
1.472548901e-13
1.557720067e-13
1.727211932e-13
1.994056349e-13
2.381931082e-13
2.925350025e-13
3.670809918e-13
4.671947418e-13
5.942828670e-13
7.119879739e-13
4.430545589e-13
5.912602991e-16
9.390658995e-16
1.526220136e-15
1.949376946e-15
1.775307788e-15
1.025178365e-15
2.962118326e-16
2.648865479e-17
6.064127052e-19
1.542931425e-13
1.630339448e-13
1.804113853e-13
2.077305677e-13
2.473700363e-13
3.027893097e-13
3.786083511e-13
4.799669470e-13
6.070346017e-13
7.159552804e-13
3.671380067e-13
5.972678047e-16
9.651130612e-16
1.550128322e-15
1.954578108e-15
1.760353063e-15
1.007188258e-15
2.887757988e-16
2.578501754e-17
5.987069664e-19
1.614807182e-13
1.704448803e-13
1.882496972e-13
2.162023585e-13
2.566910336e-13
3.131806292e-13
3.902516221e-13
4.927786594e-13
6.195122023e-13
7.179871852e-13
2.778874372e-13
6.059454241e-16
9.913659490e-16
1.573448183e-15
1.958979631e-15
1.745098553e-15
9.893789282e-16
2.814975884e-16
2.509758709e-17
5.908866057e-19
1.688162903e-13
1.780033659e-13
1.962350927e-13
2.248197532e-13
2.661543567e-13
3.237063006e-13
4.020050337e-13
5.056142832e-13
6.316576109e-13
7.177840480e-13
1.754918341e-13
6.168093210e-16
1.017781342e-15
1.596164571e-15
1.962595896e-15
1.729561102e-15
9.717483291e-16
2.743713231e-16
2.442576673e-17
5.829515110e-19
1.762983811e-13
1.857082707e-13
2.043658519e-13
2.335810988e-13
2.757586762e-13
3.343637667e-13
4.138623285e-13
5.184563543e-13
6.434059021e-13
7.150031331e-13
6.413167732e-14
6.295027040e-16
1.044316409e-15
1.618266141e-15
1.965440365e-15
1.713754293e-15
9.542970471e-16
2.673933326e-16
2.376902227e-17
5.749040441e-19
1.839259058e-13
1.935581387e-13
2.126410396e-13
2.424850733e-13
2.855017326e-13
3.451498951e-13
4.258168205e-13
5.312851692e-13
6.546820551e-13
7.092506383e-13
3.931654055e-15
6.437526187e-16
1.070932825e-15
1.639735956e-15
1.967529046e-15
1.697694270e-15
9.370228816e-16
2.605597591e-16
2.312692867e-17
5.667496546e-19
1.916977589e-13