/*--------------------------------*- C++ -*----------------------------------*\
| =========                 |                                                 |
| \\      /  F ield         | OpenFOAM: The Open Source CFD Toolbox           |
|  \\    /   O peration     | Version:  5.x                                   |
|   \\  /    A nd           | Web:      www.OpenFOAM.org                      |
|    \\/     M anipulation  |                                                 |
\*---------------------------------------------------------------------------*/
FoamFile
{
    version     2.0;
    format      ascii;
    class       volScalarField;
    location    "3.5";
    object       CH2CHO;
}
// * * * * * * * * * * * * * * * * * * * * * * * * * * * * * * * * * * * * * //

dimensions      [0 0 0 0 0 0 0];

internalField   nonuniform List<scalar>
51080
(
0.000000000e+00
0.000000000e+00
0.000000000e+00
0.000000000e+00
0.000000000e+00
0.000000000e+00
0.000000000e+00
0.000000000e+00
0.000000000e+00
0.000000000e+00
9.686970149e-18
1.682630503e-17
2.864429679e-17
5.333808569e-17
1.140261946e-16
2.802557653e-16
8.190180520e-16
3.107296146e-15
1.911490526e-14
7.945962644e-14
0.000000000e+00
0.000000000e+00
0.000000000e+00
0.000000000e+00
0.000000000e+00
0.000000000e+00
0.000000000e+00
0.000000000e+00
6.945954715e-18
1.129395634e-17
1.954593715e-17
3.333272649e-17
6.278537050e-17
1.377657214e-16
3.450705478e-16
1.026894502e-15
3.940043024e-15
2.246958812e-14
6.499329209e-14
5.153489760e-13
0.000000000e+00
0.000000000e+00
0.000000000e+00
0.000000000e+00
0.000000000e+00
0.000000000e+00
0.000000000e+00
8.061446219e-18
1.293645384e-17
2.228572967e-17
3.791354162e-17
7.094030555e-17
1.543115057e-16
3.792104036e-16
1.090869507e-15
3.951845012e-15
2.007123074e-14
4.753393151e-14
3.229194848e-13
1.195108305e-12
0.000000000e+00
0.000000000e+00
0.000000000e+00
0.000000000e+00
0.000000000e+00
6.316366116e-18
9.282681297e-18
1.445936410e-17
2.389204754e-17
4.179304836e-17
7.682246940e-17
1.642898363e-16
3.925341100e-16
1.074723925e-15
3.641403057e-15
1.645630914e-14
1.108307747e-13
2.093684148e-13
8.400495539e-13
1.848346912e-12
0.000000000e+00
0.000000000e+00
0.000000000e+00
0.000000000e+00
7.587941457e-18
1.083685054e-17
1.649632581e-17
2.683085043e-17
4.687292224e-17
8.160493909e-17
1.694792673e-16
3.901087748e-16
1.013530438e-15
3.203861073e-15
1.299432967e-14
7.424297112e-14
1.352445568e-13
5.828492804e-13
1.444167980e-12
2.336694011e-12
0.000000000e+00
6.113213127e-18
7.267078914e-18
9.303966361e-18
1.278903676e-17
1.885070383e-17
2.982136389e-17
5.080997788e-17
8.639685941e-17
1.712987603e-16
3.772399965e-16
9.285035327e-16
2.739576285e-15
1.005078662e-14
4.965067745e-14
8.651141571e-14
3.917346875e-13
1.095232945e-12
1.980140938e-12
2.607733589e-12
8.839949401e-18
9.771553940e-18
1.177964962e-17
1.539064014e-17
2.172628284e-17
3.310337644e-17
5.451643908e-17
8.988803014e-17
1.704124253e-16
3.576511402e-16
8.335260630e-16
2.297128389e-15
7.672187005e-15
3.321874606e-14
5.485833100e-14
2.527648339e-13
7.972969655e-13
1.614132559e-12
2.372761579e-12
2.635705945e-12
1.405574039e-17
1.565634142e-17
1.914728395e-17
2.554329144e-17
3.705499032e-17
5.840970906e-17
9.268505391e-17
1.671487510e-16
3.342715605e-16
7.378635728e-16
1.900749410e-15
5.808720509e-15
2.228016098e-14
1.129601434e-13
1.565003738e-13
5.508925925e-13
1.260625791e-12
2.054218706e-12
2.593559761e-12
2.375391970e-12
2.233935330e-17
2.507378846e-17
3.110790454e-17
4.237069556e-17
6.315992972e-17
9.540251178e-17
1.619156227e-16
3.066294669e-16
6.532708359e-16
1.565128752e-15
4.386280675e-15
1.502690956e-14
6.630939522e-14
9.370869676e-14
3.581097932e-13
9.349541790e-13
1.699220429e-12
2.376687036e-12
2.630797622e-12
1.658919829e-12
3.538581527e-17
4.000551530e-17
5.032570401e-17
6.995440982e-17
9.949042678e-17
1.579921992e-16
2.834595757e-16
5.696156892e-16
1.282921216e-15
3.315200610e-15
1.022418092e-14
3.951762761e-14
5.502712273e-14
2.185468271e-13
6.512095801e-13
1.336916322e-12
2.066555982e-12
2.568581943e-12
2.466008406e-12
9.854702101e-16
5.574604239e-17
6.331934501e-17
8.059179629e-17
1.063585857e-16
1.571855052e-16
2.653497482e-16
5.002707018e-16
1.052805171e-15
2.516948056e-15
7.039129119e-15
2.402833815e-14
1.037202665e-13
1.263466144e-13
4.216022902e-13
9.913127238e-13
1.707888898e-12
2.342793911e-12
2.627261478e-12
2.039484396e-12
8.457862809e-17
8.886968826e-17
9.876531037e-17
1.181988025e-16
1.616922473e-16
2.559582516e-16
4.481619004e-16
8.763780972e-16
1.934970022e-15
4.928202928e-15
1.497726074e-14
5.647045595e-14
7.062022606e-14
2.527744243e-13
6.845418652e-13
1.334076501e-12
2.021776442e-12
2.522978475e-12
2.549531883e-12
1.116139598e-12
2.510627699e-17
1.219565249e-16
1.375651364e-16
1.761210558e-16
2.559065878e-16
4.143275006e-16
7.486284359e-16
1.522006261e-15
3.534983344e-15
9.624289362e-15
3.181715385e-14
3.916613213e-14
1.418038938e-13
4.353795821e-13
9.750024280e-13
1.650060517e-12
2.268094210e-12
2.608855841e-12
2.320904439e-12
4.380007063e-16
9.475971044e-18
1.768675607e-16
2.055230162e-16
2.712901760e-16
4.011541966e-16
6.647041696e-16
1.238618382e-15
2.621416008e-15
6.419301364e-15
1.871733093e-14
6.694409447e-14
7.644620160e-14
2.543316602e-13
6.583708258e-13
1.264757382e-12
1.923703557e-12
2.445295962e-12
2.603659414e-12
1.895226193e-12
8.690414298e-17
3.954370700e-18
2.683856377e-16
3.126131576e-16
4.153435830e-16
6.236116887e-16
1.056903936e-15
2.031198800e-15
4.479918096e-15
1.158370702e-14
3.612749435e-14
4.101733751e-14
1.385256512e-13
4.065555217e-13
9.003385672e-13
1.535213460e-12
2.148842866e-12
2.556267157e-12
2.508429218e-12
1.118037063e-12
3.271898423e-17
1.734825834e-18
4.022732350e-16
4.704224862e-16
6.304930619e-16
9.611706561e-16
1.666057351e-15
3.303407351e-15
7.598979855e-15
2.074819064e-14
6.880117409e-14
7.284521054e-14
2.299866044e-13
5.878825596e-13
1.143060227e-12
1.776207638e-12
2.324896811e-12
2.605562429e-12
2.318374340e-12
9.854644903e-16
1.497837217e-17
7.812951083e-19
5.970005860e-16
7.013415506e-16
9.489318504e-16
1.469128109e-15
2.604893324e-15
5.330666538e-15
1.279246707e-14
3.680251155e-14
3.859582696e-14
1.220890749e-13
3.497174572e-13
7.847619241e-13
1.374079195e-12
1.983424762e-12
2.454265312e-12
2.597725512e-12
2.016940212e-12
1.627069480e-16
7.570779381e-18
3.567669875e-19
8.784557487e-16
1.036965423e-15
1.416791031e-15
2.227997996e-15
4.041784154e-15
8.538017692e-15
2.135878294e-14
6.440607866e-14
6.357345104e-14
1.916055287e-13
4.916551709e-13
9.852334916e-13
1.586084654e-12
2.156183660e-12
2.540709593e-12
2.536241474e-12
1.560673352e-12
6.585764823e-17
4.068468260e-18
1.641594571e-19
1.282897716e-15
1.521822942e-15
2.099884298e-15
3.354602907e-15
6.226835418e-15
1.357431536e-14
3.531964247e-14
1.106504362e-13
1.002784918e-13
2.813358708e-13
6.476296339e-13
1.180541311e-12
1.775510121e-12
2.295880097e-12
2.588377604e-12
2.422735258e-12
8.188951802e-13
3.350100304e-17
2.281935799e-18
7.592441538e-20
1.861054826e-15
2.218565968e-15
3.091821051e-15
5.017767761e-15
9.528916607e-15
2.141549819e-14
5.772022801e-14
5.280472707e-14
1.507089147e-13
3.884124683e-13
8.098327943e-13
1.365034315e-12
1.941257819e-12
2.404976664e-12
2.601254500e-12
2.256108036e-12
1.151013973e-15
1.908798414e-17
1.322424484e-18
3.529405519e-20
2.683791025e-15
3.215173881e-15
4.525360875e-15
7.460294105e-15
1.448699245e-14
3.350080293e-14
9.294993518e-14
7.935904830e-14
2.154862552e-13
5.083209702e-13
9.720010648e-13
1.535491411e-12
2.083742538e-12
2.486370763e-12
2.582856321e-12
2.031153489e-12
2.467510327e-16
1.167442547e-17
7.872486618e-19
1.651732125e-20
3.849934231e-15
4.634906190e-15
6.588086948e-15
1.102914788e-14
2.187883604e-14
5.189808492e-14
4.336201805e-14
1.151456588e-13
2.936901165e-13
6.361949488e-13
1.129638039e-12
1.690416006e-12
2.204244100e-12
2.543020850e-12
2.536067919e-12
1.735713049e-12
1.138278620e-16
7.507851534e-18
4.798001301e-19
7.806332235e-21
5.496975915e-15
6.649919739e-15
9.543824328e-15
1.621599916e-14
3.280877947e-14
7.948121048e-14
6.267134297e-14
1.610180594e-13
3.832009050e-13
7.676652677e-13
1.279793021e-12
1.829451478e-12
2.304472841e-12
2.577738583e-12
2.463052673e-12
1.343478376e-12
6.491600344e-17
5.018255991e-18
2.987971944e-19
3.743286888e-21
7.815601665e-15
9.499702908e-15
1.376126681e-14
2.371001514e-14
4.881244969e-14
1.200829752e-13
8.828714820e-14
2.170450358e-13
4.812821267e-13
8.992230701e-13
1.420712726e-12
1.952962788e-12
2.386305566e-12
2.593076757e-12
2.365186292e-12
7.908725461e-13
4.119971719e-17
3.461098637e-18
1.899313690e-19
1.832597820e-21
1.106908700e-14
1.351552520e-14
1.975136659e-14
3.446343315e-14
7.197009108e-14
5.112899030e-14
1.210286651e-13
2.825263009e-13
5.851100623e-13
1.028255497e-12
1.551511458e-12
2.061734873e-12
2.451618026e-12
2.591282316e-12
2.242973348e-12
7.028842634e-15
2.796136204e-17
2.451412905e-18
1.231603039e-19
9.226960668e-22
1.561879027e-14
1.915225924e-14
2.821456396e-14
4.976855156e-14
1.050107382e-13
7.025792914e-14
1.613467805e-13
3.561814475e-13
6.921173388e-13
1.152940856e-12
1.671902119e-12
2.156774287e-12
2.502193977e-12
2.574284709e-12
2.095909373e-12
5.622232555e-16
1.989605939e-17
1.777033298e-18
8.144597109e-20
4.812264882e-22
2.195675937e-14
2.702838036e-14
4.009767583e-14
7.134034174e-14
4.445964115e-14
9.458752173e-14
2.092538579e-13
4.364091937e-13
8.001535409e-13
1.272088850e-12
1.781993612e-12
2.239182877e-12
2.539671138e-12
2.543700127e-12
1.922220673e-12
2.544999044e-16
1.467488119e-17
1.315127237e-18
5.491752463e-20
2.614566156e-22
3.074619571e-14
3.797449340e-14
5.665845520e-14
1.013932732e-13
5.983614246e-14
1.246484609e-13
2.643403991e-13
5.215247585e-13
9.075173541e-13
1.384991402e-12
1.882143834e-12
2.310069483e-12
2.565525029e-12
2.500852086e-12
1.718375734e-12
1.508638774e-16
1.113852614e-17
9.917314645e-19
3.775070561e-20
1.484626376e-22
4.286925772e-14
5.308869699e-14
7.953223965e-14
4.228515089e-14
7.925390432e-14
1.607363785e-13
3.258629175e-13
6.099286070e-13
1.012923645e-12
1.491289659e-12
1.972859116e-12
2.370504563e-12
2.581057985e-12
2.446788108e-12
1.478113447e-12
1.008693828e-16
8.656917820e-18
7.608491911e-19
2.645012125e-20
8.817851925e-23
5.948071018e-14
7.379528396e-14
1.107911734e-13
5.592047959e-14
1.032124095e-13
2.028773998e-13
3.928645909e-13
7.002023337e-13
1.115441104e-12
1.590874221e-12
2.054718162e-12
2.421490051e-12
2.587409391e-12
2.382295777e-12
1.190382370e-12
7.236615343e-17
6.864566687e-18
5.930805756e-19
1.888455908e-20
5.472614366e-23
8.206227191e-14
1.018994405e-13
4.485917989e-14
7.297891909e-14
1.320816531e-13
2.508360926e-13
4.642934690e-13
7.911464003e-13
1.214423783e-12
1.683808062e-12
2.128332325e-12
2.463944905e-12
2.585565570e-12
2.307920645e-12
8.346047425e-13
5.443044219e-17
5.538473909e-18
4.691899880e-19
1.373488759e-20
3.541573690e-23
1.124714859e-13
4.151121602e-14
5.840830475e-14
9.390469977e-14
1.660617424e-13
3.041577284e-13
5.390977298e-13
8.817828293e-13
1.309449935e-12
1.770265528e-12
2.194308538e-12
2.498701894e-12
2.576369008e-12
2.223971333e-12
3.698604065e-13
4.237450949e-17
4.536918772e-18
3.763280167e-19
1.017195946e-20
2.383410380e-23
4.485681568e-14
5.379247380e-14
7.515299451e-14
1.190589104e-13
2.051655561e-13
3.622311226e-13
6.162886518e-13
9.713372027e-13
1.400266537e-12
1.850493506e-12
2.253232542e-12
2.526505623e-12
2.560535895e-12
2.130518985e-12
3.000718468e-15
3.387433208e-17
3.766783961e-18
3.057504209e-19
7.667141366e-21
1.663183049e-23
5.772937424e-14
6.896600892e-14
9.548299289e-14
1.486847402e-13
2.492238883e-13
4.243535641e-13
6.949781527e-13
1.059210655e-12
1.486749534e-12
1.924780131e-12
2.305658578e-12
2.548018457e-12
2.538666070e-12
2.027386753e-12
7.780298521e-16
2.765860308e-17
3.165145711e-18
2.514091769e-19
5.878485993e-21
1.199940993e-23
7.352004875e-14
8.740990042e-14
1.197175547e-13
1.828856436e-13
2.979117570e-13
4.897890246e-13
7.743953912e-13
1.144952780e-12
1.568866431e-12
1.993431986e-12
2.352099344e-12
2.563825459e-12
2.511258780e-12
1.914124330e-12
4.172077914e-16
2.297975237e-17
2.688444950e-18
2.090579458e-19
4.581788575e-21
8.926354561e-24
9.258330280e-14
1.094507676e-13
1.480774398e-13
2.216193715e-13
3.507860856e-13
5.578138651e-13
8.538855030e-13
1.228235268e-12
1.646651712e-12
2.056764738e-12
2.393030085e-12
2.574439759e-12
2.478719865e-12
1.789955879e-12
2.725752913e-16
1.937323569e-17
2.305894876e-18
1.756714488e-19
3.627861731e-21
6.829325068e-24
1.152183594e-13
1.353369733e-13
1.806664518e-13
2.647072461e-13
4.073275049e-13
6.277450845e-13
9.329046384e-13
1.308826033e-12
1.720187171e-12
2.115086909e-12
2.428881738e-12
2.580309790e-12
2.441374417e-12
1.653705022e-12
1.959599280e-16
1.653740550e-17
1.995313204e-18
1.490637301e-19
2.915903284e-21
5.359702727e-24
1.416455879e-13
1.652181234e-13
2.174652793e-13
3.118564774e-13
4.669779737e-13
6.989616789e-13
1.011009460e-12
1.386569754e-12
1.789586030e-12
2.168697955e-12
2.460044455e-12
2.581826308e-12
2.399471468e-12
1.503660200e-12
1.492022781e-16
1.426939724e-17
1.740476403e-18
1.276413261e-19
2.377233361e-21
4.305103891e-24
1.719886661e-13
1.991344422e-13
2.583376783e-13
3.626876303e-13
5.291736436e-13
7.709086593e-13
1.087841928e-12
1.461372417e-12
1.854981938e-12
2.217884159e-12
2.486873466e-12
2.579328815e-12
2.353192360e-12
1.337360866e-12
1.180816524e-16
1.242864007e-17
1.529333783e-18
1.102268780e-19
1.964303778e-21
3.532145885e-24
2.062664482e-13
2.370167468e-13
3.030460263e-13
4.167649372e-13
5.933672842e-13
8.431037533e-13
1.163120624e-12
1.533184789e-12
1.916519134e-12
2.262912485e-12
2.509684141e-12
2.573109687e-12
2.302654980e-12
1.151232732e-12
9.611107342e-17
1.091522031e-17
1.352815502e-18
9.594091215e-20
1.643770621e-21
2.954432103e-24
2.443954955e-13
2.786957635e-13
3.512733318e-13
4.736240839e-13
6.590452617e-13
9.151316578e-13
1.236625469e-12
1.601996386e-12
1.974350262e-12
2.304034509e-12
2.528762776e-12
2.563418994e-12
2.247916848e-12
9.399654399e-13
7.992001178e-17
9.656599683e-18
1.204008346e-18
8.411978677e-20
1.391976941e-21
2.515097495e-24
2.861989135e-13
3.239189350e-13
4.026477209e-13
5.327941107e-13
7.257365940e-13
9.866397907e-13
1.308188510e-12
1.667820780e-12
2.028628653e-12
2.341482952e-12
2.544363765e-12
2.550471141e-12
2.188977039e-12
6.954701169e-13
6.759003672e-17
8.599053843e-18
1.077575121e-18
7.425586032e-20
1.191785058e-21
2.175036792e-24
3.314240014e-13
3.723707988e-13
4.567639359e-13
5.938157902e-13
7.930182775e-13
1.057333270e-12
1.377686759e-12
1.730693133e-12
2.079503566e-12
2.375473671e-12
2.556713448e-12
2.534446479e-12
2.125777102e-12
4.056248988e-13
5.795373470e-17
7.702248443e-18
9.693734381e-19
6.596102982e-20
1.030860945e-21
1.907856414e-24
3.797603840e-13
4.236932131e-13
5.132057819e-13
6.562535125e-13
8.605146246e-13
1.126967536e-12
1.445030390e-12
1.790663486e-12
2.127124236e-12
2.406203849e-12
2.566015642e-12
2.515495575e-12
2.058197139e-12
6.410115980e-14
5.026156080e-17
6.935368744e-18
8.761515169e-19
5.893473688e-20
9.002050062e-22
1.695512376e-24
4.308598541e-13
4.775056222e-13
5.715591726e-13
7.197033880e-13
9.278978520e-13
1.195341044e-12
1.510159736e-12
1.847791922e-12
2.171632924e-12
2.433857030e-12
2.572448846e-12
2.493741770e-12
1.986054863e-12
2.205532954e-15
4.401248074e-17
6.274578748e-18
7.953256326e-19
5.294129911e-20
7.930663768e-22
1.524656600e-24
4.843546890e-13
5.334203565e-13
6.314260742e-13
7.837966216e-13
9.948830466e-13
1.262292052e-12
1.573039207e-12
1.902146733e-12
2.213166265e-12
2.458599973e-12
2.576173799e-12
2.469284673e-12
1.909096257e-12
9.754545193e-16
3.885964214e-17
5.701229183e-18
7.248300715e-19
4.779470491e-20
7.043763034e-22
1.385637008e-24
5.398711680e-13
5.910567708e-13
6.924313633e-13
8.482027451e-13
1.061227374e-12
1.327690955e-12
1.633650760e-12
1.953800161e-12
2.251854353e-12
2.480585583e-12
2.577331064e-12
2.442199709e-12
1.826985517e-12
6.036656010e-16
3.455583096e-17
5.200539906e-18
6.629991319e-19
4.334718576e-20
6.302922060e-22
1.271374752e-24
5.970432971e-13
6.500493953e-13
7.542294040e-13
9.126274342e-13
1.126723543e-12
1.391435121e-12
1.691992172e-12
2.002826521e-12
2.287818823e-12
2.499953570e-12
2.576044600e-12
2.412542481e-12
1.739293612e-12
4.258709025e-16
3.092105751e-17
4.760719628e-18
6.084855329e-19
3.948086944e-20
5.678889922e-22
1.176637083e-24
6.555203574e-13
7.100552698e-13
8.165031033e-13
9.768123182e-13
1.191197762e-12
1.453445989e-12
1.748072900e-12
2.049303461e-12
2.321178142e-12
2.516832381e-12
2.572424077e-12
2.380347468e-12
1.645475811e-12
3.224461640e-16
2.782106665e-17
4.372261121e-18
5.601853823e-19
3.610080392e-20
5.149050506e-22
1.097390302e-24
7.149726430e-13
7.707573937e-13
8.789693610e-13
1.040531344e-12
1.254504879e-12
1.513666120e-12
1.801912609e-12
2.093307110e-12
2.352040068e-12
2.531336615e-12
2.566564405e-12
2.345631229e-12
1.544844191e-12
2.552535052e-16
2.515412367e-17
4.027407219e-18
5.171847471e-19
3.312882759e-20
4.695468260e-22
1.030758523e-24
7.750946513e-13
8.318668689e-13
9.413739157e-13
1.103590633e-12
1.316524941e-12
1.572053170e-12
1.853537599e-12
2.134913890e-12
2.380506829e-12
2.543573261e-12
2.558548965e-12
2.308391409e-12
1.436523501e-12
2.083749287e-16
2.284192564e-17
3.719824619e-18
4.787342097e-19
3.050186863e-20
4.304020171e-22
9.738921545e-25
8.356084185e-13
8.931226745e-13
1.003494614e-12
1.165822108e-12
1.377159394e-12
1.628579769e-12
1.902979825e-12
2.174197118e-12
2.406675296e-12
2.553638219e-12
2.548446813e-12
2.268606710e-12
1.319399738e-12
1.739948125e-16
2.082337643e-17
3.444302981e-18
4.442162544e-19
2.816946546e-20
3.964293735e-22
9.254162503e-25
8.962626216e-13
9.542922906e-13
1.065134123e-12
1.227084801e-12
1.436330005e-12
1.683230212e-12
1.950276414e-12
2.211229879e-12
2.430634483e-12
2.561618729e-12
2.536320268e-12
2.226238078e-12
1.192028358e-12
1.478308621e-16
1.905009265e-17
3.196505857e-18
4.131073725e-19
2.608907769e-20
3.667561488e-22
8.838304508e-25
9.568321048e-13
1.015169102e-12
1.126122995e-12
1.287257142e-12
1.493974965e-12
1.735998082e-12
1.995466411e-12
2.246082510e-12
2.452468572e-12
2.567594218e-12
2.522217889e-12
2.181226415e-12
1.052509487e-12
1.273433177e-16
1.748341753e-17
2.972790106e-18
3.849685659e-19
2.422518641e-20
3.406662473e-22
8.478922334e-25
1.017117509e-12
1.075571507e-12
1.186313626e-12
1.346240200e-12
1.550045397e-12
1.786884811e-12
2.038592454e-12
2.278822670e-12
2.472255780e-12
2.571635855e-12
2.506181233e-12
2.133493698e-12
8.983039096e-13
1.109318184e-16
1.609200855e-17
2.770106884e-18
3.594275141e-19
2.254817943e-20
3.175849920e-22
8.166556891e-25
1.076941589e-12
1.135341379e-12
1.245579496e-12
1.403949672e-12
1.604506166e-12
1.835899950e-12
2.079697164e-12
2.309515949e-12
2.490068647e-12
2.573807501e-12
2.488240849e-12
2.082939373e-12
7.259718654e-13
9.753979065e-17
1.485042883e-17
2.585868765e-18
3.361683281e-19
2.103330500e-20
2.970486694e-22
7.893542245e-25
1.136151421e-12
1.194340961e-12
1.303813927e-12
1.460318394e-12
1.657332357e-12
1.883055829e-12
2.118825665e-12
2.338225855e-12
2.505974635e-12
2.574167760e-12
2.468420576e-12
2.029439054e-12
5.308934541e-13
8.644191571e-17
1.373769172e-17
2.417876747e-18
3.149227430e-19
1.965977320e-20
2.786758976e-22
7.653639963e-25
1.194612498e-12
1.252451995e-12
1.360926871e-12
1.515291629e-12
1.708506504e-12
1.928372055e-12
2.156022147e-12
2.365009991e-12
2.520036470e-12
2.572767144e-12
2.446735387e-12
1.972842436e-12
3.075189056e-13
7.712471792e-17
1.273640050e-17
2.264256699e-18
2.954592308e-19
1.840990679e-20
2.621525257e-22
7.441662126e-25
1.252209520e-12
1.309573894e-12
1.416841429e-12
1.568825768e-12
1.758020461e-12
1.971870473e-12
2.191330108e-12
2.389927861e-12
2.532313301e-12
2.569651703e-12
2.423191480e-12
1.912969480e-12
5.938432053e-14
6.921457913e-17
1.183207110e-17
2.123398606e-18
2.775804630e-19
1.726877471e-20
2.472198110e-22
7.253349855e-25
1.308842640e-12
1.365620263e-12
1.471496482e-12
1.620888519e-12
1.805871817e-12
2.013574124e-12
2.224795630e-12
2.413031951e-12
2.542857777e-12
2.564862683e-12
2.397788220e-12
1.849604135e-12
3.176312646e-15
6.243374251e-17
1.101251950e-17
1.993912691e-18
2.611145997e-19
1.622357611e-20
2.336594330e-22
7.085063177e-25
1.364427310e-12
1.420518373e-12
1.524839484e-12
1.671454968e-12
1.852063423e-12
2.053510684e-12
2.256460357e-12
2.434375687e-12
2.551720601e-12
2.558433440e-12
2.370516106e-12
1.782491118e-12
1.397280710e-15
5.657149499e-17
1.026741700e-17
1.874600490e-18
2.459137953e-19
1.526337612e-20
2.212906921e-22
6.933792260e-25
1.418893364e-12
1.474209236e-12
1.576831864e-12
1.720507881e-12
1.896601630e-12
2.091707933e-12
2.286368613e-12
2.454006254e-12
2.558947417e-12
2.550394403e-12
2.341357040e-12
1.711327856e-12
8.676497793e-16
5.146538322e-17
9.588008163e-18
1.764412792e-18
2.318486345e-19
1.437876175e-20
2.099604963e-22
6.796964238e-25
1.472180015e-12
1.526642382e-12
1.627439813e-12
1.768038084e-12
1.939499696e-12
2.128195602e-12
2.314560185e-12
2.471970982e-12
2.564579541e-12
2.540772047e-12
2.310286795e-12
1.635751760e-12
6.152124376e-16
4.698820751e-17
8.966806803e-18
1.662439379e-18
2.188064603e-19
1.356158142e-20
1.995398298e-22
6.672344409e-25
1.524238516e-12
1.577778938e-12
1.676639593e-12
1.814039066e-12
1.980769910e-12
2.163003954e-12
2.341077708e-12
2.488313399e-12
2.568656264e-12
2.529585583e-12
2.277270653e-12
1.555330017e-12
4.682603176e-16
4.303905637e-17
8.397360505e-18
1.567883427e-18
2.066882049e-19
1.280480121e-20
1.899180325e-22
6.558087017e-25
1.575029214e-12
1.627586524e-12
1.724414984e-12
1.858511905e-12
2.020429669e-12
2.196163687e-12
2.365959018e-12
2.503074676e-12
2.571213390e-12
2.516852077e-12
2.242264191e-12
1.469538767e-12
3.725496904e-16
3.953685189e-17
7.874107714e-18
1.480042221e-18
1.954075814e-19
1.210231607e-20
1.810019300e-22
6.452574382e-25
1.624519874e-12
1.676041123e-12
1.770753264e-12
1.901459557e-12
2.058497644e-12
2.227704791e-12
2.389242214e-12
2.516294445e-12
2.572281158e-12
2.502582855e-12
2.205214896e-12
1.377743338e-12
3.055435040e-16
3.641592946e-17
7.392221824e-18
1.398295335e-18
1.848874251e-19
1.144875538e-20
1.727107683e-22
6.354389638e-25
1.672686015e-12
1.723125546e-12
1.815648960e-12
1.942890588e-12
2.094994995e-12
2.257659013e-12
2.410964815e-12
2.528008134e-12
2.571890255e-12
2.486784780e-12
2.166059093e-12
1.279161351e-12
2.562104890e-16
3.362245356e-17
6.947523453e-18
1.322097581e-18
1.750602870e-19
1.083943691e-20
1.649768494e-22
6.262370358e-25
1.719508483e-12
1.768826228e-12
1.859099603e-12
1.982813085e-12
2.129941749e-12
2.286056413e-12
2.431160897e-12
2.538250543e-12
2.570064762e-12
2.469462575e-12
2.124722206e-12
1.172822454e-12
2.185124653e-16
3.111198419e-17
6.536321061e-18
1.250962137e-18
1.658660721e-19
1.027026137e-20
1.577403957e-22
6.175405397e-25
1.764975038e-12
1.813135973e-12
1.901106020e-12
2.021240319e-12
2.163362477e-12
2.312927636e-12
2.449865156e-12
2.547053804e-12
2.566828856e-12
2.450612900e-12
2.081115471e-12
1.057499930e-12
1.888704382e-16
2.884748721e-17
6.155394527e-18
1.184456998e-18
1.572510910e-19
9.737591155e-21
1.509497185e-22
6.092613739e-25
1.809076415e-12
1.856051856e-12
1.941673747e-12
2.058187534e-12
2.195280054e-12
2.338302331e-12
2.467109070e-12
2.554447611e-12
2.562200786e-12
2.430231191e-12
2.035137787e-12
9.316321040e-13
1.650294120e-16
2.679786257e-17
5.801905055e-18
1.122193234e-18
1.491677632e-19
9.238229182e-21
1.445606801e-22
6.013237579e-25
1.851809214e-12
1.897573468e-12
1.980810417e-12
2.093669583e-12
2.225717321e-12
2.362209436e-12
2.482924272e-12
2.560458767e-12
2.556199593e-12
2.408306799e-12
1.986669932e-12
7.931989890e-13
1.454980139e-16
2.493696234e-17
5.473342314e-18
1.063829838e-18
1.415734259e-19
8.769364521e-21
1.385343851e-22
5.936580572e-25
1.893171772e-12
1.937704128e-12
2.018525305e-12
2.127704823e-12
2.254698685e-12
2.384677285e-12
2.497339923e-12
2.565114089e-12
2.548837644e-12
2.384825646e-12
1.935578260e-12
6.395897048e-13
1.292516841e-16
2.324247117e-17
5.167481665e-18
1.009052700e-18
1.344300216e-19
8.328457269e-21
1.328373474e-22
5.862051501e-25
1.933167818e-12
1.976449938e-12
2.054830702e-12
2.160310371e-12
2.282249110e-12
2.405734094e-12
2.510383807e-12
2.568436161e-12
2.540127811e-12
2.359766558e-12
1.881703877e-12
4.675319969e-13
1.155635678e-16
2.169536338e-17
4.882340130e-18
9.575848299e-19
1.277025386e-19
7.913288932e-21
1.274405211e-22
5.789119190e-25
1.971801827e-12
2.013819534e-12
2.089740146e-12
2.191505493e-12
2.308391027e-12
2.425406791e-12
2.522082784e-12
2.570446802e-12
2.530078477e-12
2.333105460e-12
1.824866932e-12
2.735897500e-13
1.039035114e-16
2.027923846e-17
4.616154396e-18
9.091734529e-19
1.213604872e-19
7.521831305e-21
1.223177101e-22
5.717341608e-25
2.009080734e-12
2.049822589e-12
2.123267382e-12
2.221310987e-12
2.333148827e-12
2.443721147e-12
2.532461472e-12
2.571165313e-12
2.518695265e-12
2.304812645e-12
1.764857041e-12
6.246016625e-14
9.387694614e-17
1.898001474e-17
4.367345903e-18
8.635930228e-19
1.153754232e-19
7.152284548e-21
1.174454795e-22
5.646309160e-25
2.045014134e-12
2.084469872e-12
2.155428058e-12
2.249745502e-12
2.356547515e-12
2.460701982e-12
2.541543330e-12
2.570609978e-12
2.505982379e-12
2.274851300e-12
1.701432221e-12
3.930713071e-15
8.518340713e-17
1.778542053e-17
4.134499129e-18
8.206349375e-19
1.097223492e-19
6.803060199e-21
1.128043391e-22
5.575674347e-25
2.079612507e-12
2.117776292e-12
2.186239803e-12
2.276830262e-12
2.378608629e-12
2.476374020e-12
2.549351183e-12
2.568795670e-12
2.491939635e-12
2.243179124e-12
1.634306876e-12
1.691705695e-15
7.759092464e-17
1.668480740e-17
3.916337206e-18
7.801122094e-19
1.043777967e-19
6.472670175e-21
1.083764238e-22
5.505199661e-25
2.112887981e-12
2.149754110e-12
2.215718537e-12
2.302584947e-12
2.399355134e-12
2.490759911e-12
2.555905192e-12
2.565737456e-12
2.476565045e-12
2.209747398e-12
1.563149966e-12
1.045288797e-15
7.091705870e-17
1.566883989e-17
3.711711867e-18
7.418562800e-19
9.932089431e-20
6.159798880e-21
1.041460825e-22
5.434597855e-25
2.144853820e-12
2.180419970e-12
2.243883304e-12
2.327030056e-12
2.418809830e-12
2.503881914e-12
2.561225373e-12
2.561445902e-12
2.459853391e-12
2.174500639e-12
1.487567120e-12
7.404357846e-16
6.501677412e-17
1.472932053e-17
3.519590946e-18
7.057105942e-19
9.453261550e-20
5.863303270e-21
1.000991439e-22
5.363710837e-25
2.175525070e-12
2.209787387e-12
2.270750353e-12
2.350185952e-12
2.436993563e-12
2.515761362e-12
2.565328489e-12
2.555930786e-12
2.441795691e-12
2.137373467e-12
1.407090706e-12
5.638111610e-16
5.977344169e-17
1.385902795e-17
3.339031419e-18
6.715330059e-19
8.999537705e-20
5.582052731e-21
9.622376432e-23
5.292390136e-25
2.204914953e-12
2.237874362e-12
2.296337852e-12
2.372072597e-12
2.453927250e-12
2.526418659e-12
2.568231771e-12
2.549201505e-12
2.422381133e-12
2.098293244e-12
1.321159298e-12
4.490228311e-16
5.509200435e-17
1.305159207e-17
3.169182218e-18
6.391942107e-19
8.569304925e-20
5.315095619e-21
9.250891910e-23
5.220504060e-25
2.233039558e-12
2.264695973e-12
2.320665377e-12
2.392709052e-12
2.469631800e-12
2.535872218e-12
2.569950001e-12
2.541262556e-12
2.401595556e-12
2.057176699e-12
1.229089737e-12
3.687301830e-16
5.089457361e-17
1.230132944e-17
3.009265667e-18
6.085735235e-19
8.161115734e-20
5.061535035e-21
8.894414368e-23
5.147945793e-25
2.259915398e-12
2.290269575e-12
2.343749982e-12
2.412115090e-12
2.484126362e-12
2.544139751e-12
2.570497834e-12
2.532119104e-12
2.379419841e-12
2.013928992e-12
1.130046697e-12
3.096186368e-16
4.711654893e-17
1.160323833e-17
2.858579897e-18
5.795635615e-19
7.773605963e-20
4.820546261e-21
8.552104586e-23
5.074600097e-25
2.285557251e-12
2.314612888e-12
2.365609015e-12
2.430309777e-12
2.497429052e-12
2.551239509e-12
2.569885645e-12
2.521773428e-12
2.355832555e-12
1.968443546e-12
1.022992547e-12
2.644295464e-16
4.370387659e-17
1.095279738e-17
2.716480212e-18
5.520611655e-19
7.405534039e-20
4.591389392e-21
8.223103085e-23
5.000405528e-25
2.309982067e-12
2.337740378e-12
2.386261721e-12
2.447311197e-12
2.509558915e-12
2.557186225e-12
2.568125436e-12
2.510225448e-12
2.330808473e-12
1.920597765e-12
9.066229505e-13
2.288720829e-16
4.061123608e-17
1.034598763e-17
2.582377421e-18
5.259751086e-19
7.055744662e-20
4.373347614e-21
7.906711151e-23
4.925301255e-25
2.333205897e-12
2.359671352e-12
2.405724794e-12
2.463137047e-12
2.520533090e-12
2.561994968e-12
2.565226542e-12
2.497472715e-12
2.304317192e-12
1.870253810e-12
7.792920900e-13
2.002469034e-16
3.780022693e-17
9.779222052e-18
2.455730357e-18
5.012189701e-19
6.723190132e-20
4.165798092e-21
7.602235257e-23
4.849263781e-25
2.355244369e-12
2.380420730e-12
2.424015450e-12
2.477804785e-12
2.530367055e-12
2.565679847e-12
2.561196017e-12
2.483512095e-12
2.276325023e-12
1.817253455e-12
6.389151305e-13
1.767715799e-16
3.523800927e-17
9.249234002e-18
2.336044308e-18
4.777126143e-19
6.406866143e-20
3.968147878e-21
7.309077317e-23
4.772286012e-25
2.376114344e-12
2.400005694e-12
2.441149999e-12
2.491330981e-12
2.539076904e-12
2.568253063e-12
2.556041912e-12
2.468336389e-12
2.246792500e-12
1.761416346e-12
4.829368464e-13
1.572231476e-16
3.289659845e-17
8.753127141e-18
2.222864795e-18
4.553837353e-19
6.105875204e-20
3.779875737e-21
7.026717460e-23
4.694413463e-25
2.395831743e-12
2.418442045e-12
2.457146215e-12
2.503732149e-12
2.546676654e-12
2.569725578e-12
2.549768083e-12
2.451937155e-12
2.215675246e-12
1.702534864e-12
3.086159326e-13
1.407338406e-16
3.075185161e-17
8.288250752e-18
2.115774497e-18
4.341631411e-19
5.819359892e-20
3.600452713e-21
6.754652924e-23
4.615660033e-25
2.414411309e-12
2.435745891e-12
2.472018044e-12
2.515022825e-12
2.553181697e-12
2.570108401e-12
2.542378152e-12
2.434303219e-12
2.182923432e-12
1.640370297e-12
1.160515929e-13
1.266715772e-16
2.878288259e-17
7.852197543e-18
2.014382253e-18
4.139875594e-19
5.546542092e-20
3.429427555e-21
6.492434332e-23
4.536066681e-25
2.431869005e-12
2.451932516e-12
2.485782428e-12
2.525218186e-12
2.558603950e-12
2.569410519e-12
2.533873890e-12
2.415421885e-12
2.148479815e-12
1.574645548e-12
6.738202930e-15
1.145653132e-16
2.697145696e-17
7.442828673e-18
1.918336550e-18
3.947989836e-19
5.286685062e-20
3.266374916e-21
6.239667852e-23
4.455701817e-25
2.448220620e-12