/*--------------------------------*- C++ -*----------------------------------*\
| =========                 |                                                 |
| \\      /  F ield         | OpenFOAM: The Open Source CFD Toolbox           |
|  \\    /   O peration     | Version:  5.x                                   |
|   \\  /    A nd           | Web:      www.OpenFOAM.org                      |
|    \\/     M anipulation  |                                                 |
\*---------------------------------------------------------------------------*/
FoamFile
{
    version     2.0;
    format      ascii;
    class       volScalarField;
    location    "3.5";
    object       CH2CO;
}
// * * * * * * * * * * * * * * * * * * * * * * * * * * * * * * * * * * * * * //

dimensions      [0 0 0 0 0 0 0];

internalField   nonuniform List<scalar>
51080
(
0.000000000e+00
0.000000000e+00
0.000000000e+00
0.000000000e+00
0.000000000e+00
0.000000000e+00
0.000000000e+00
0.000000000e+00
0.000000000e+00
0.000000000e+00
2.870371711e-08
3.857290540e-08
5.031033507e-08
6.726418374e-08
9.344246825e-08
1.332988930e-07
1.949813518e-07
2.947398793e-07
4.704360146e-07
8.021513098e-07
0.000000000e+00
0.000000000e+00
0.000000000e+00
0.000000000e+00
0.000000000e+00
0.000000000e+00
0.000000000e+00
0.000000000e+00
2.391766188e-08
3.141028449e-08
4.188303997e-08
5.440585287e-08
7.272541114e-08
1.014610325e-07
1.446087612e-07
2.108094203e-07
3.160603972e-07
4.889750735e-07
7.719531675e-07
1.090273216e-06
0.000000000e+00
0.000000000e+00
0.000000000e+00
0.000000000e+00
0.000000000e+00
0.000000000e+00
0.000000000e+00
2.616772006e-08
3.394336135e-08
4.493244907e-08
5.805813783e-08
7.703348858e-08
1.065733209e-07
1.501147891e-07
2.154964444e-07
3.169128945e-07
4.772581473e-07
7.254018879e-07
1.021321811e-06
1.174487998e-06
0.000000000e+00
0.000000000e+00
0.000000000e+00
0.000000000e+00
0.000000000e+00
2.280954074e-08
2.842266366e-08
3.612299784e-08
4.665563930e-08
6.094474913e-08
7.997856437e-08
1.095549178e-07
1.523423719e-07
2.148559654e-07
3.102004726e-07
4.563718900e-07
6.769827001e-07
9.541511819e-07
1.148345892e-06
1.150334490e-06
0.000000000e+00
0.000000000e+00
0.000000000e+00
0.000000000e+00
2.542916164e-08
3.103385165e-08
3.879342236e-08
4.951587531e-08
6.440479849e-08
8.227177106e-08
1.111390329e-07
1.522686156e-07
2.111249077e-07
2.995357706e-07
4.319372750e-07
6.284029828e-07
8.857433469e-07
1.105401477e-06
1.172763993e-06
1.062746620e-06
0.000000000e+00
2.246248587e-08
2.484644239e-08
2.858126705e-08
3.399968793e-08
4.161943206e-08
5.221400313e-08
6.693121697e-08
8.445300257e-08
1.117875715e-07
1.506446047e-07
2.054216708e-07
2.866579534e-07
4.060236817e-07
5.807706116e-07
8.165081531e-07
1.049728499e-06
1.167586881e-06
1.130604671e-06
9.337528329e-07
2.780428772e-08
2.940292768e-08
3.256966742e-08
3.753995609e-08
4.476811599e-08
5.496213147e-08
6.918171634e-08
8.600359797e-08
1.116997736e-07
1.479242024e-07
1.984408524e-07
2.724951392e-07
3.795994425e-07
5.345404847e-07
7.475385460e-07
9.833535908e-07
1.141587390e-06
1.164011334e-06
1.045367443e-06
7.734954163e-07
3.582061917e-08
3.790689959e-08
4.204386590e-08
4.854707076e-08
5.802305783e-08
7.141752547e-08
8.721573315e-08
1.109591535e-07
1.444484437e-07
1.906880620e-07
2.577000441e-07
3.533106816e-07
4.901140437e-07
6.801369976e-07
9.086799772e-07
1.097254115e-06
1.171277107e-06
1.116339243e-06
9.308786609e-07
5.823148055e-07
4.546022903e-08
4.813498368e-08
5.344339783e-08
6.179766956e-08
7.398593109e-08
8.835200080e-08
1.096533083e-07
1.400323539e-07
1.831212670e-07
2.430198558e-07
3.277843149e-07
4.479488976e-07
6.155567683e-07
8.290334687e-07
1.036154678e-06
1.155592141e-06
1.156681418e-06
1.039168267e-06
7.944596475e-07
3.417323297e-07
5.683936928e-08
6.020086763e-08
6.688235156e-08
7.741174528e-08
8.997101591e-08
1.086523562e-07
1.360827112e-07
1.748139939e-07
2.285267454e-07
3.033888734e-07
4.084365484e-07
5.548588053e-07
7.482720796e-07
9.607526348e-07
1.118130550e-06
1.170552356e-06
1.111876348e-06
9.417646279e-07
6.379847000e-07
1.691640503e-10
7.005115460e-08
7.412741697e-08
8.232245232e-08
9.254656527e-08
1.084766162e-07
1.328187966e-07
1.671691146e-07
2.146586705e-07
2.804334817e-07
3.718670157e-07
4.988043456e-07
6.699582665e-07
8.753838600e-07
1.059863186e-06
1.159431324e-06
1.154679062e-06
1.046587296e-06
8.296296553e-07
4.558569998e-07
9.861115400e-12
8.584625801e-08
8.975324889e-08
9.669622623e-08
1.097339030e-07
1.310712521e-07
1.608667297e-07
2.022797792e-07
2.595107230e-07
3.386170446e-07
4.479248327e-07
5.967425008e-07
7.859336517e-07
9.832167590e-07
1.123747856e-06
1.169796452e-06
1.117482630e-06
9.673291432e-07
7.053026668e-07
2.176791783e-07
2.257965602e-12
9.796028349e-08
1.028780610e-07
1.135233780e-07
1.310905936e-07
1.564710231e-07
1.920230492e-07
2.412644109e-07
3.091647161e-07
4.026461915e-07
5.303611844e-07
6.983379745e-07
8.933835942e-07
1.064320860e-06
1.157814782e-06
1.157935335e-06
1.065711385e-06
8.783318064e-07
5.683254298e-07
6.949735037e-11
7.161170917e-13
1.137253548e-07
1.205797388e-07
1.340197485e-07
1.546969994e-07
1.845147030e-07
2.262598390e-07
2.839660076e-07
3.633064272e-07
4.717934878e-07
6.171123643e-07
7.980535906e-07
9.841253325e-07
1.118922671e-06
1.169116118e-06
1.130460322e-06
1.004073999e-06
7.821312991e-07
4.133996532e-07
1.025555532e-11
2.668658947e-13
1.334917106e-07
1.412897533e-07
1.566537658e-07
1.805728059e-07
2.151202867e-07
2.634632371e-07
3.301632054e-07
4.214797600e-07
5.449372006e-07
7.051519410e-07
8.897660731e-07
1.054398607e-06
1.151239396e-06
1.163744442e-06
1.092181682e-06
9.358150868e-07
6.798849058e-07
2.195337270e-07
3.123741145e-12
1.093617279e-13
1.548801855e-07
1.637495647e-07
1.812675258e-07
2.086296643e-07
2.481760664e-07
3.034672462e-07
3.795571184e-07
4.830454319e-07
6.204819687e-07
7.907711863e-07
9.685919509e-07
1.104789973e-06
1.166198299e-06
1.146400910e-06
1.046559461e-06
8.631205296e-07
5.713945696e-07
1.716620730e-10
1.227400267e-12
4.760348794e-14
1.779201675e-07
1.879494198e-07
2.077754227e-07
2.387665628e-07
2.835469610e-07
3.460624338e-07
4.317595402e-07
5.471413926e-07
6.963611694e-07
8.701600843e-07
1.032271952e-06
1.138146288e-06
1.168097523e-06
1.120589401e-06
9.960691144e-07
7.873892565e-07
4.546186233e-07
2.200319394e-11
5.559757570e-13
2.156963398e-14
2.025983310e-07
2.138525632e-07
2.361029262e-07
2.708780738e-07
3.210796995e-07
3.909963731e-07
4.862775470e-07
6.126602258e-07
7.702300697e-07
9.402758888e-07
1.081037205e-06
1.157816263e-06
1.160341494e-06
1.088893438e-06
9.424695627e-07
7.094097856e-07
3.236298532e-07
7.353242682e-12
2.765490789e-13
1.005141550e-14
2.288798835e-07
2.414087545e-07
2.661734773e-07
3.048524113e-07
3.606020172e-07
4.379677383e-07
5.424984992e-07
6.782670705e-07
8.397417480e-07
9.994940656e-07
1.116573455e-06
1.166834610e-06
1.145534767e-06
1.053210275e-06
8.869941773e-07
6.294549733e-07
1.585963059e-07
3.229772216e-12
1.471480597e-13
4.783493632e-15
2.567182185e-07
2.705592174e-07
2.979047723e-07
3.405680959e-07
4.019179354e-07
4.866168613e-07
5.996834764e-07
7.424946776e-07
9.029184594e-07
1.047621551e-06
1.141051109e-06
1.167696699e-06
1.125644554e-06
1.014928945e-06
8.304881092e-07
5.472904094e-07
2.041406922e-10
1.643041517e-12
8.244273440e-14
2.316459274e-15
2.860583911e-07
3.012378570e-07
3.312069341e-07
3.778903250e-07
4.448015870e-07
5.365177715e-07
6.569768156e-07
8.038875200e-07
9.584916136e-07
1.085457521e-06
1.156575566e-06
1.162372804e-06
1.102149539e-06
9.750611930e-07
7.735059004e-07
4.620546839e-07
3.625059116e-11
9.204165360e-13
4.814837640e-14
1.140150667e-15
3.168382196e-07
3.333707019e-07
3.659793921e-07
4.166658971e-07
4.889898959e-07
5.871725853e-07
7.134434175e-07
8.611280087e-07
1.005988115e-06
1.114278954e-06
1.164972198e-06
1.152392968e-06
1.076158755e-06
9.343375142e-07
7.163794401e-07
3.718633243e-07
1.438247161e-11
5.529807300e-13
2.911645388e-14
5.708663964e-16
3.489868922e-07
3.668738034e-07
4.021079153e-07
4.567177365e-07
5.341762716e-07
6.380146878e-07
7.681527121e-07
9.132240204e-07
1.045595472e-06
1.135470938e-06
1.167744193e-06
1.138936418e-06
1.048501203e-06
8.932791989e-07
6.592650686e-07
2.726273512e-07
7.260212671e-12
3.506834088e-13
1.814913050e-14
2.915773512e-16
3.824230571e-07
4.016506672e-07
4.394600202e-07
4.978398315e-07
5.800063413e-07
6.884238558e-07
8.202128482e-07
9.595981383e-07
1.077925250e-06
1.150331516e-06
1.166099237e-06
1.122909719e-06
1.019794896e-06
8.522495328e-07
6.021713147e-07
1.538178450e-07
4.170771149e-12
2.323006029e-13
1.162458117e-14
1.526129001e-16
4.170514667e-07
4.375882179e-07
4.778805602e-07
5.397917020e-07
6.260784080e-07
7.377658717e-07
8.688633893e-07
1.000080491e-06
1.103789732e-06
1.159992361e-06
1.160996898e-06
1.105008598e-06
9.904970632e-07
8.114938505e-07
5.449704990e-07
1.342590049e-09
2.607804869e-12
1.595650571e-13
7.633815856e-15
8.231951878e-17
4.527597208e-07
4.745532385e-07
5.171874734e-07
5.822958650e-07
6.719500092e-07
7.854213386e-07
9.135458843e-07
1.034828427e-06
1.124045879e-06
1.165405764e-06
1.153195338e-06
1.085766084e-06
9.609434831e-07
7.711680884e-07
4.873909382e-07
9.371222543e-11
1.733845260e-12
1.130462322e-13
5.131587476e-15
4.601673754e-17
4.894144044e-07
5.123880460e-07
5.571680327e-07
6.250376345e-07
7.171555431e-07
8.308092901e-07
9.539334858e-07
1.064216094e-06
1.139506390e-06
1.167356765e-06
1.143292675e-06
1.065589981e-06
9.313768810e-07
7.313597806e-07
4.289820656e-07
3.779065357e-11
1.208635517e-12
8.227053617e-14
3.526727624e-15
2.677048692e-17
5.268578387e-07
5.509077148e-07
5.975772108e-07
6.676686933e-07
7.612372314e-07
8.734426188e-07
9.899203598e-07
1.088732710e-06
1.150898858e-06
1.166486896e-06
1.131760643e-06
1.044791100e-06
9.019702805e-07
6.921047522e-07
3.690349627e-07
2.030707512e-11
8.750988256e-13
6.130895978e-14
2.475547529e-15
1.624102800e-17
5.649048808e-07
5.898977647e-07
6.381383837e-07
7.098188931e-07
8.037408815e-07
9.129593088e-07
1.021583497e-06
1.108906081e-06
1.158854194e-06
1.163317484e-06
1.118971220e-06
1.023605510e-06
8.728424031e-07
6.533977998e-07
3.064105322e-07
1.248317700e-11
6.537414812e-13
4.666458346e-14
1.773284952e-15
1.027478268e-17
6.033424867e-07
6.291145080e-07
6.785472406e-07
7.511207116e-07
8.442551826e-07
9.491352966e-07
1.049130761e-06
1.125254209e-06
1.163909278e-06
1.158271677e-06
1.105217467e-06
1.002211124e-06
8.440712765e-07
6.152006889e-07
2.391548972e-07
8.329946333e-12
5.014122518e-13
3.620094700e-14
1.295253494e-15
6.767920888e-18
6.419295398e-07
6.682875587e-07
7.184844690e-07
7.912015450e-07
8.824374852e-07
9.818800758e-07
1.072850056e-06
1.138258076e-06
1.166516375e-06
1.151693321e-06
1.090731049e-06
9.807409107e-07
8.157042186e-07
5.774476469e-07
1.635538856e-07
5.883848780e-12
3.933427066e-13
2.857267381e-14
9.640138372e-16
4.630404753e-18
6.804013864e-07
7.071272354e-07
7.576313985e-07
8.297103607e-07
9.180307588e-07
1.011217146e-06
1.093068318e-06
1.148350203e-06
1.167054456e-06
1.143861595e-06
1.075694220e-06
9.592930357e-07
7.877646853e-07
5.400481939e-07
7.162969045e-08
4.336322563e-12
3.146473590e-13
2.290960477e-14
7.305441331e-16
3.281360135e-18
7.184793896e-07
7.453437878e-07
7.956633200e-07
8.663398450e-07
9.508714623e-07
1.037258298e-06
1.110120879e-06
1.155911677e-06
1.165840266e-06
1.135003732e-06
1.060250539e-06
9.379384368e-07
7.602582995e-07
5.028869029e-07
5.654419924e-10
3.303812283e-12
2.560300241e-13
1.863535359e-14
5.632798968e-16
2.401669963e-18
7.558840666e-07
7.826377402e-07
8.322748320e-07
9.008410223e-07
9.808852741e-07
1.060175476e-06
1.124333051e-06
1.161273758e-06
1.163138767e-06
1.125305228e-06
1.044513027e-06
9.167272757e-07
7.331771200e-07
4.658217825e-07
1.350423669e-10
2.585732340e-12
2.114918872e-13
1.536011380e-14
4.415581831e-16
1.810464475e-18
7.923280649e-07
8.187188465e-07
8.671962198e-07
9.330330446e-07
1.008076461e-06
1.080176334e-06
1.136009277e-06
1.164723070e-06
1.159171314e-06
1.114917331e-06
1.028570100e-06
8.956934245e-07
7.065028642e-07
4.286794449e-07
6.729185749e-11
2.069283524e-12
1.770498523e-13
1.281525592e-14
3.516492375e-16
1.402076621e-18
8.275374634e-07
8.533227525e-07
9.002054578e-07
9.628050511e-07
1.032512220e-06
1.097485567e-06
1.145427077e-06
1.166506274e-06
1.154123662e-06
1.103964159e-06
1.012491063e-06
8.748581075e-07
6.802092643e-07
3.912450482e-07
4.117074004e-11
1.687357539e-12
1.499930102e-13
1.081230454e-14
2.842847360e-16
1.112852862e-18
8.612651700e-07
8.862230675e-07
9.311361785e-07
9.901118200e-07
1.054305961e-06
1.112329738e-06
1.152836083e-06
1.166835205e-06
1.148151629e-06
1.092547090e-06
9.963295235e-07
8.542329152e-07
6.542639963e-07
3.532478591e-07
2.790237722e-11
1.398166524e-12
1.284338123e-13
9.216753394e-15
2.331047817e-16
9.031535430e-19
8.933023316e-07
9.172400001e-07
9.598802977e-07
1.014965617e-06
1.073600924e-06
1.124929529e-06
1.158458973e-06
1.165891864e-06
1.141386611e-06
1.080749734e-06
9.801266993e-07
8.338219111e-07
6.286301067e-07
3.143356389e-07
2.014201339e-11
1.174705706e-12
1.110334069e-13
7.931530967e-15
1.937104025e-16
7.479299203e-19
9.234851549e-07
9.462451633e-07
9.863854709e-07
1.037423985e-06
1.090557841e-06
1.135492373e-06
1.162492183e-06
1.163833001e-06
1.133939415e-06
1.068640631e-06
9.639144563e-07
8.136236558e-07
6.032661967e-07
2.740330353e-07
1.518844385e-11
9.989576105e-13
9.682458461e-14
6.885488799e-15
1.630086765e-16
6.308980104e-19
9.516985537e-07
9.731615960e-07
1.010648720e-06
1.057578582e-06
1.105343940e-06
1.144211329e-06
1.165109581e-06
1.160793291e-06
1.125903608e-06
1.056276106e-06
9.477160609e-07
7.936320163e-07
5.781274932e-07
2.316684418e-07
1.182989064e-11
8.585672455e-13
8.509755481e-14
6.025810374e-15
1.387967903e-16
5.411506843e-19
9.778761901e-07
9.979599022e-07
1.032707812e-06
1.075544082e-06
1.118126300e-06
1.151262612e-06
1.166463811e-06
1.156889401e-06
1.117359112e-06
1.043702790e-06
9.315493191e-07
7.738376011e-07
5.531658077e-07
1.862428526e-07
9.448848586e-12
7.448620889e-13
7.532346653e-14
5.312837736e-15
1.194882938e-16
4.712917261e-19
1.001995381e-06
1.020651945e-06
1.052632285e-06
1.091448355e-06
1.129066500e-06
1.156806175e-06
1.166689228e-06
1.152221783e-06
1.108373430e-06
1.030958881e-06
9.154264097e-07
7.542284669e-07
5.283293458e-07
1.361891652e-07
7.701296456e-12
6.516210893e-13
6.710241609e-14
4.716331981e-15
1.039146101e-16
4.160630483e-19
1.024071946e-06
1.041283058e-06
1.070513307e-06
1.105425829e-06
1.138318043e-06
1.160986397e-06
1.165904295e-06
1.146877770e-06
1.099004265e-06
1.018075913e-06
8.993556617e-07
7.347907695e-07
5.035627207e-07
7.898498505e-08
6.382551909e-12
5.743085915e-13
6.012967243e-14
4.213236699e-15
9.122350059e-17
3.718318170e-19
1.044151907e-06
1.059923552e-06
1.086457470e-06
1.117611456e-06
1.146023939e-06
1.163933055e-06
1.164213014e-06
1.140933275e-06
1.089301106e-06
1.005079742e-06
8.833425432e-07
7.155090757e-07
4.788056644e-07
1.253156264e-08
5.364265929e-12
5.095558792e-13
5.417003363e-14
3.785730240e-15
8.078501743e-17
3.360648140e-19
1.062304435e-06
1.076661509e-06
1.100578379e-06
1.128137484e-06
1.152316747e-06
1.165762326e-06
1.161707356e-06
1.134454340e-06
1.079306222e-06
9.919919870e-07
8.673892407e-07
6.963667882e-07
4.539924535e-07
4.130168197e-10
4.562659400e-12
4.548246069e-13
4.903950167e-14
3.419850529e-15
7.211956993e-17
3.068326796e-19
1.078614959e-06
1.091596094e-06
1.112993068e-06
1.137130164e-06
1.157317786e-06
1.166578596e-06
1.158468614e-06
1.127498860e-06
1.069055970e-06
9.788297287e-07
8.514965046e-07
6.773466205e-07
4.290503442e-07
1.736957645e-10
3.921105101e-12
4.081769310e-13
4.459300570e-14
3.104580706e-15
6.486223371e-17
2.827095181e-19
1.093178515e-06
1.104832431e-06
1.123817532e-06
1.144709248e-06
1.161138363e-06
1.166475333e-06
1.154568609e-06
1.120117367e-06
1.058581760e-06
9.656075596e-07
8.356630817e-07
6.584299992e-07
4.038965777e-07
1.025509591e-10
3.400206029e-12
3.681130368e-13
4.071507936e-14
2.831167610e-15
5.873277211e-17
2.626284321e-19
1.106095961e-06
1.116477383e-06
1.133164957e-06
1.150986289e-06
1.163879481e-06
1.165536126e-06
1.150071042e-06
1.112354132e-06
1.047910331e-06
9.523368538e-07
8.198864507e-07
6.395978911e-07
3.784370753e-07
6.923297513e-11
2.971932223e-12
3.334614057e-13
3.731333291e-14
2.592623308e-15
5.351541057e-17
2.457864329e-19
1.117469597e-06
1.126636754e-06
1.141142598e-06
1.156064933e-06
1.165633016e-06
1.163835920e-06
1.145032578e-06
1.104248250e-06
1.037065234e-06
9.390270370e-07
8.041629509e-07
6.208306606e-07
3.525613738e-07
5.030246902e-11
2.615862067e-12
3.032968359e-13
3.431295817e-14
2.383320820e-15
4.904154988e-17
2.315528529e-19
1.127400545e-06
1.135413065e-06
1.147852730e-06
1.160040617e-06
1.166482349e-06
1.161442210e-06
1.139503595e-06
1.095834288e-06
1.026066382e-06
9.256853409e-07
7.884880101e-07
6.021076729e-07
3.261377892e-07
3.830816481e-11
2.316865421e-12
2.768793886e-13
3.165257442e-14
2.198609879e-15
4.517522080e-17
2.194721417e-19
1.135986605e-06
1.142904438e-06
1.153390394e-06
1.163001430e-06
1.166503108e-06
1.158415433e-06
1.133528984e-06
1.087142556e-06
1.014931184e-06
9.123178480e-07
7.728564123e-07
5.834077981e-07
2.990042202e-07
3.015378666e-11
2.063548119e-12
2.536150403e-13
2.928225752e-14
2.034734331e-15
4.180838445e-17
2.090745214e-19
1.143321850e-06
1.149203527e-06
1.157844716e-06
1.165027734e-06
1.165763574e-06
1.154809985e-06
1.127148925e-06
1.078199866e-06
1.003674723e-06
8.989287233e-07
7.572621851e-07
5.647087393e-07
2.709588285e-07
2.432817372e-11
1.847205883e-12
2.330233776e-13
2.716122200e-14
1.888694198e-15
3.886137740e-17
2.001438062e-19
1.149495126e-06
1.154397292e-06
1.161297482e-06
1.166193480e-06
1.164326202e-06
1.150675048e-06
1.120399475e-06
1.069030134e-06
9.923100332e-07
8.855214402e-07
7.416990617e-07
5.459875000e-07
2.417408176e-07
2.000951097e-11
1.661090073e-12
2.147109386e-13
2.525515530e-14
1.757952316e-15
3.626634566e-17
1.924300389e-19
1.154589715e-06
1.158566893e-06
1.163824822e-06
1.166565791e-06
1.162247267e-06
1.146054674e-06
1.113312781e-06
1.059654542e-06
9.808484589e-07
8.720983784e-07
7.261598950e-07
5.272194122e-07
2.110047565e-07
1.671464555e-11
1.499915231e-12
1.983526415e-13
2.353548669e-14
1.640384075e-15
3.396693217e-17
1.857226643e-19
1.158683777e-06
1.161787477e-06
1.165496497e-06
1.166206544e-06
1.159577912e-06
1.140988996e-06
1.105917865e-06
1.050091830e-06
9.692997165e-07
8.586608643e-07
7.106376398e-07
5.083785102e-07
1.782795957e-07
1.414218195e-11
1.359481780e-12
1.836799010e-13
2.197812967e-14
1.534215628e-15
3.191754882e-17
1.798602642e-19
1.161849371e-06
1.164128851e-06
1.166376750e-06
1.165171832e-06
1.156364839e-06
1.135514176e-06
1.098240657e-06
1.040358986e-06
9.576721520e-07
8.452096223e-07
6.951243474e-07
4.894367075e-07
1.429048605e-07
1.209527649e-11
1.236442179e-12
1.704681319e-13
2.056277545e-14
1.437960465e-15
3.008113474e-17
1.747105433e-19
1.164153982e-06
1.165655407e-06
1.166524670e-06
1.163513184e-06
1.152650351e-06
1.129662682e-06
1.090304778e-06
1.030470664e-06
9.459728628e-07
8.317447438e-07
6.796117486e-07
4.703635630e-07
1.039428923e-07
1.044040348e-11
1.128086099e-12
1.585288438e-13
1.927225957e-14
1.350368756e-15
2.842695006e-17
1.701647179e-19
1.165659616e-06
1.166426489e-06
1.165994584e-06
1.161277662e-06
1.148473054e-06
1.123464675e-06
1.082131294e-06
1.020440209e-06
9.342082970e-07
8.182656173e-07
6.640916291e-07
4.511257846e-07
6.013843339e-08
9.084200453e-12
1.032207751e-12
1.477033106e-13
1.809183960e-14
1.270374462e-15
2.692948428e-17
1.661313745e-19
1.166423711e-06
1.166496918e-06
1.164836032e-06
1.158508213e-06
1.143868031e-06
1.116946880e-06
1.073739216e-06
1.010279557e-06
9.223836212e-07
8.047712272e-07
6.485545868e-07
4.316864763e-07
1.165936506e-08
7.959622889e-12
9.469992126e-13
1.378567402e-13
1.700901662e-14
1.197076147e-15
2.556759816e-17
1.625347916e-19
1.166499106e-06
1.165916953e-06
1.163094897e-06
1.155244290e-06
1.138867485e-06
1.110133769e-06
1.065145964e-06
9.999991861e-07
9.105031640e-07
7.912601583e-07
6.329915187e-07
4.120042194e-07
6.054726122e-10
7.017498356e-12
8.709663686e-13
1.288741762e-13
1.601294833e-14
1.129699117e-15
2.432329939e-17
1.593096115e-19
1.165934702e-06
1.164733007e-06
1.160812980e-06
1.151521957e-06
1.133500702e-06
1.103047843e-06
1.056367027e-06
9.896085985e-07
8.985707754e-07
7.777303329e-07
6.173922954e-07
3.920320091e-07
2.564383550e-10
6.221031832e-12
8.028628316e-13
1.206573734e-13
1.509434324e-14
1.067580163e-15
2.318161925e-17
1.564013855e-19
1.164775601e-06
1.162987847e-06
1.158029115e-06
1.147374179e-06
1.127794290e-06
1.095709296e-06
1.047416690e-06
9.791160897e-07
8.865895627e-07
7.641795684e-07
6.017464720e-07
3.717163534e-07
1.535367605e-10
5.542258088e-12
7.416480400e-13
1.131213210e-13
1.424509536e-14
1.010147583e-15
2.212978814e-17
1.537631723e-19
1.163063128e-06
1.160720720e-06
1.154778437e-06
1.142831390e-06
1.121773073e-06
1.088136827e-06
1.038307489e-06
9.685291156e-07
8.745617413e-07
7.506050609e-07
5.860430512e-07
3.509943598e-07
1.051309557e-10
4.959590784e-12
6.864458151e-13
1.061928926e-13
1.345817691e-14
9.569049859e-16
2.115698938e-17
1.513538828e-19
1.160835642e-06
1.157967929e-06
1.151093636e-06
1.137921342e-06
1.115459367e-06
1.080347304e-06
1.029051369e-06
9.578544545e-07
8.624895605e-07
7.370038804e-07
5.702700527e-07
3.297923263e-07
7.738664449e-11
4.456149585e-12
6.365121491e-13
9.980872532e-14
1.272742560e-14
9.074234877e-16
2.025388121e-17
1.491393882e-19
1.158128403e-06
1.154762825e-06
1.147004964e-06
1.132669837e-06
1.108873836e-06
1.072356252e-06
1.019658702e-06
9.470977788e-07
8.503744160e-07
7.233724793e-07
5.544148776e-07
3.080212159e-07
5.962577868e-11
4.018572937e-12
5.912147291e-13
9.391335383e-14
1.204749047e-14
8.613303693e-16
1.941256612e-17
1.470895643e-19
1.154974038e-06
1.151136138e-06
1.142539762e-06
1.127100140e-06
1.102035234e-06
1.064177721e-06
1.010138826e-06
9.362645211e-07
8.382172006e-07
7.097072814e-07
5.384640378e-07
2.855734878e-07
4.741924834e-11
3.636192541e-12
5.500124478e-13
8.845830571e-14
1.141360262e-14
8.182965954e-16
1.862615327e-17
1.451778589e-19
1.151402498e-06
1.147116458e-06
1.137723733e-06
1.121234142e-06
1.094961082e-06
1.055824693e-06
1.000500632e-06
9.253590050e-07
8.260187396e-07
6.960040428e-07
5.224029276e-07
2.623157038e-07
3.860444862e-11
3.300389579e-12
5.124426612e-13
8.340128098e-14
1.082160003e-14
7.780350447e-16
1.788886090e-17
1.433823990e-19
1.147441625e-06
1.142729806e-06
1.132580232e-06
1.115091684e-06
1.087667129e-06
1.047309001e-06
9.907517889e-07
9.143854672e-07
8.137790090e-07
6.822585702e-07
5.062156139e-07
2.380799093e-07
3.200151523e-11
3.004152314e-12
4.781023838e-13
7.870480523e-14
1.026778920e-14
7.402943841e-16
1.719554433e-17
1.416821075e-19
1.143117042e-06
1.138000450e-06
1.127130886e-06
1.108691001e-06
1.080168294e-06
1.038641371e-06
9.808994861e-07
9.033472343e-07
8.014982524e-07
6.684658803e-07
4.898847889e-07
2.126501118e-07
2.691400497e-11
2.741721274e-12
4.466448401e-13
7.433588801e-14
9.748871524e-15
7.048504429e-16
1.654173661e-17
1.400602198e-19
1.138452351e-06
1.132950864e-06
1.121395868e-06
1.102049346e-06
1.072477929e-06
1.029831805e-06
9.709500846e-07
8.922475059e-07
7.891755489e-07
6.546208547e-07
4.733913805e-07
1.857441442e-07
2.290525880e-11
2.508330671e-12
4.177675222e-13
7.026506503e-14
9.261937147e-15
6.715063008e-16
1.592361901e-17
1.385022507e-19
1.133469781e-06
1.127601581e-06
1.115393492e-06
1.095182188e-06
1.064608514e-06
1.020889345e-06
9.609093624e-07
8.810885384e-07
7.768104498e-07
6.407179081e-07
4.567141011e-07
1.569848238e-07
1.968816901e-11
2.300029189e-12
3.912066267e-13
6.646663085e-14
8.804378023e-15
6.400889934e-16
1.533780524e-17
1.369948202e-19
1.128189370e-06
1.121971809e-06
1.109140969e-06
1.088103973e-06
1.056571188e-06
1.011822329e-06
9.507824946e-07
8.698728690e-07
7.644017608e-07
6.267512158e-07
4.398297090e-07
1.258622402e-07
1.706677106e-11
2.113492157e-12
3.667306538e-13
6.291711772e-14
8.373873528e-15
6.104412645e-16
1.478137944e-17
1.355265035e-19
1.122630039e-06
1.116079332e-06
1.102654262e-06
1.080827952e-06
1.048376959e-06
1.002638184e-06
9.405740458e-07
8.586019344e-07
7.519480405e-07
6.127140447e-07
4.227115961e-07
9.169327948e-08
1.490302991e-11
1.945926494e-12
3.441362479e-13
5.959593291e-14
7.968293334e-15
5.824262627e-16
1.425180457e-17
1.340869814e-19
1.116809354e-06
1.109940648e-06
1.095947822e-06
1.073366581e-06
1.040035076e-06
9.933440236e-07
9.302884730e-07
8.472774544e-07
7.394476331e-07
5.985997381e-07
4.053298495e-07
5.365689145e-08
1.309707356e-11
1.794958020e-12
3.232440369e-13
5.648443965e-14
7.585786140e-15
5.559180610e-16
1.374678363e-17
1.326676281e-19
1.110743277e-06
1.103570820e-06
1.089035155e-06
1.065731190e-06
1.031554521e-06
9.839462421e-07
9.199293694e-07
8.359003388e-07
7.268986111e-07
5.844005865e-07
3.876500989e-07
1.229508448e-08
1.157518310e-11
1.658574952e-12
3.038955854e-13
5.356607500e-14
7.224626584e-15
5.308052445e-16
1.326424986e-17
1.312603989e-19
1.104446852e-06
1.096983946e-06
1.081928872e-06
1.057932221e-06
1.022943764e-06
9.744503297e-07
9.094999403e-07
8.244715612e-07
7.142985661e-07
5.701084744e-07
3.696336815e-07
7.558185392e-10
1.028173613e-11
1.535048852e-12
2.859499916e-13
5.082564292e-14
6.883301862e-15
5.069893962e-16
1.280249324e-17
1.298584303e-19
1.097934080e-06
1.090193273e-06
1.074640749e-06
1.049979590e-06
1.014210105e-06
9.648617375e-07
8.990033069e-07
8.129913696e-07
7.016451112e-07
5.557145213e-07
3.512341384e-07
3.147642015e-10
9.174186236e-12
1.422899873e-12
2.692819636e-13
4.824958639e-14
6.560395062e-15
4.843778503e-16
1.235993998e-17
1.284569898e-19
1.091217721e-06
1.083210667e-06
1.067181358e-06
1.041882119e-06
1.005360624e-06
9.551853681e-07
8.884419451e-07
8.014602229e-07
6.889351933e-07
5.412091273e-07
3.323983841e-07
1.883573983e-10
8.219409160e-12
1.320847907e-12
2.537796065e-13
4.582575729e-14
6.254645220e-15
4.628887144e-16
1.193520891e-17
1.270503344e-19
1.084309854e-06
1.076047881e-06
1.059560939e-06
1.033648116e-06
9.964016473e-07
9.454252950e-07
8.778181695e-07
7.898777901e-07
6.761656128e-07
5.265819417e-07
3.130624914e-07
1.293507089e-10
7.391342605e-12
1.227784846e-12
2.393434676e-13
4.354292850e-14
5.964908162e-15
4.424514370e-16
1.152704609e-17
1.256352371e-19
1.077221739e-06
1.068714822e-06
1.051788476e-06
1.025285452e-06
9.873391210e-07
9.355856200e-07
8.671337925e-07
7.782438408e-07
6.633330614e-07
5.118213107e-07
2.931501889e-07
9.558564331e-11
6.669245799e-12
1.142746072e-12
2.258836459e-13
4.139098794e-14
5.690124884e-15
4.229950422e-16
1.113441419e-17
1.242086592e-19
1.069963566e-06
1.061221612e-06
1.043872621e-06
1.016801061e-06
9.781783833e-07
9.256699728e-07
8.563903986e-07
7.665578806e-07
6.504334720e-07
4.969145716e-07
2.725686190e-07
7.394862970e-11
6.036402747e-12
1.064892455e-12
2.133197652e-13
3.936074866e-14
5.429327295e-15
4.044606186e-16
1.075634191e-17
1.227678659e-19
1.062544898e-06
1.053577009e-06
1.035821460e-06
1.008201451e-06
9.689243176e-07
9.156813310e-07
8.455893716e-07
7.548187998e-07
6.374627932e-07
4.818479693e-07
2.512029827e-07
5.904455166e-11
5.479262937e-12
9.934847089e-13
2.015791029e-13
3.744370910e-14
5.181647644e-15
3.867921637e-16
1.039189699e-17
1.213105949e-19
1.054974821e-06
1.045789495e-06
1.027642318e-06
9.994929274e-07
9.595816408e-07
9.056226626e-07
8.347318537e-07
7.430256505e-07
6.244162803e-07
4.666059212e-07
2.289104016e-07
4.824987203e-11
4.986722646e-12
9.278797319e-13
1.905966099e-13
3.563233136e-14
4.946267915e-15
3.699382267e-16
1.004034847e-17
1.198344062e-19
1.047261625e-06
1.037866971e-06
1.019341939e-06
9.906809099e-07
9.501543492e-07
8.954965710e-07
8.238184728e-07
7.311771270e-07
6.112889541e-07
4.511712496e-07
2.055090280e-07
4.013724118e-11
4.549596371e-12
8.675048351e-13
1.803130156e-13
3.391942097e-14
4.722447844e-15
3.538527081e-16
9.700931639e-18
1.183378948e-19
1.039413031e-06
1.029816406e-06
1.010926861e-06
9.817705477e-07
9.406462360e-07
8.853052282e-07
8.128498221e-07
7.192715182e-07
5.980755049e-07
4.355245669e-07
1.807638072e-07
3.386514189e-11
4.160272430e-12
8.118569459e-13
1.706747751e-13
3.229863430e-14
4.509495091e-15
3.384906591e-16
9.373036388e-18
1.168196846e-19
1.031436143e-06
1.021644679e-06
1.002402719e-06
9.727666301e-07
9.310607725e-07
8.750506401e-07
8.018262140e-07
7.073068907e-07
5.847698535e-07
4.196442280e-07
1.543675971e-07
2.890593144e-11
3.812374844e-12
7.604913314e-13
1.616331211e-13
3.076399817e-14
4.306786707e-15
3.238132163e-16
9.056046892e-18
1.152791044e-19
1.023337648e-06
1.013358015e-06
9.937750426e-07
9.636735236e-07
9.214009725e-07
8.647344582e-07
7.907476429e-07
6.952812824e-07
5.713654117e-07
4.035055459e-07
1.259136244e-07
2.491255063e-11
3.500524030e-12
7.130095059e-13
1.531438212e-13
2.931000104e-14
4.113722103e-15
3.097832727e-16
8.749440645e-18
1.137158430e-19
1.015123716e-06
1.004962068e-06
9.850488043e-07
9.544952197e-07
9.116697522e-07
8.543581860e-07
7.796140993e-07
6.831921670e-07
5.578552226e-07
3.870804872e-07
9.487054410e-08
2.164795408e-11
3.220184810e-12
6.690611796e-13
1.451666202e-13
2.793169138e-14
3.929768671e-15
2.963683947e-16
8.452767821e-18
1.121306215e-19
1.006800145e-06
9.964622898e-07
9.762287390e-07
9.452353546e-07
9.018694148e-07
8.439229076e-07
7.684250149e-07
6.710369013e-07
5.442315782e-07
3.703368624e-07
6.059748038e-08
1.894482389e-11
2.967492955e-12
6.283303880e-13
1.376648250e-13
2.662435098e-14
3.754416867e-15
2.835352722e-16
8.165588485e-18
1.105235229e-19
9.983722576e-07
9.878634199e-07
9.673189709e-07
9.358972908e-07
8.920023996e-07
8.334296377e-07
7.571799375e-07
6.588123723e-07
5.304858728e-07
3.532373876e-07
2.285632645e-08
1.668197636e-11
2.739147191e-12
5.905336110e-13
1.306044674e-13
2.538369163e-14
3.587203990e-15
2.712557461e-16
7.887514816e-18
1.088951890e-19
9.898448751e-07
9.791703836e-07
9.583235094e-07
9.264841348e-07
8.820708457e-07
8.228791550e-07
7.458779112e-07
6.465155625e-07
5.166087627e-07
3.357385152e-07
1.312005306e-09
1.476968058e-11
2.532302893e-12
5.554209155e-13
1.239550692e-13
2.420578564e-14
3.427694235e-15
2.595032940e-16
7.618211911e-18
1.072468094e-19
9.812226897e-07