/*--------------------------------*- C++ -*----------------------------------*\
| =========                 |                                                 |
| \\      /  F ield         | OpenFOAM: The Open Source CFD Toolbox           |
|  \\    /   O peration     | Version:  5.x                                   |
|   \\  /    A nd           | Web:      www.OpenFOAM.org                      |
|    \\/     M anipulation  |                                                 |
\*---------------------------------------------------------------------------*/
FoamFile
{
    version     2.0;
    format      ascii;
    class       volScalarField;
    location    "3.5";
    object       CH2O;
}
// * * * * * * * * * * * * * * * * * * * * * * * * * * * * * * * * * * * * * //

dimensions      [0 0 0 0 0 0 0];

internalField   nonuniform List<scalar>
51080
(
0.000000000e+00
0.000000000e+00
0.000000000e+00
0.000000000e+00
0.000000000e+00
0.000000000e+00
0.000000000e+00
0.000000000e+00
0.000000000e+00
0.000000000e+00
2.328621444e-13
3.827576491e-13
6.124722109e-13
1.050475968e-12
2.002847617e-12
4.217957596e-12
1.001079505e-11
2.846452457e-11
1.135049112e-10
8.653132393e-10
0.000000000e+00
0.000000000e+00
0.000000000e+00
0.000000000e+00
0.000000000e+00
0.000000000e+00
0.000000000e+00
0.000000000e+00
1.726942542e-13
2.688646570e-13
4.395616445e-13
7.030416743e-13
1.214759044e-12
2.359375916e-12
5.024613455e-12
1.204020528e-11
3.435670869e-11
1.287348865e-10
7.303943566e-10
4.597753497e-09
0.000000000e+00
0.000000000e+00
0.000000000e+00
0.000000000e+00
0.000000000e+00
0.000000000e+00
0.000000000e+00
1.986078695e-13
3.050372402e-13
4.957320484e-13
7.898007662e-13
1.353952407e-12
2.603945424e-12
5.445899511e-12
1.267588413e-11
3.455308629e-11
1.186676960e-10
5.595073575e-10
3.007104182e-09
1.038916265e-08
0.000000000e+00
0.000000000e+00
0.000000000e+00
0.000000000e+00
0.000000000e+00
1.591828418e-13
2.264758895e-13
3.380908344e-13
5.287096038e-13
8.622929450e-13
1.453649526e-12
2.751844037e-12
5.617387771e-12
1.256284028e-11
3.252701352e-11
1.024706837e-10
4.214078936e-10
2.043340313e-09
7.345644481e-09
1.671095626e-08
0.000000000e+00
0.000000000e+00
0.000000000e+00
0.000000000e+00
1.887515712e-13
2.612139658e-13
3.813362967e-13
5.870804651e-13
9.547654248e-13
1.534061032e-12
2.830839448e-12
5.602655088e-12
1.202095306e-11
2.952888647e-11
8.593020096e-11
3.146856423e-10
1.391053579e-09
5.197203255e-09
1.272962279e-08
2.276600168e-08
0.000000000e+00
1.548994661e-13
1.816407903e-13
2.277250958e-13
3.038900063e-13
4.302900375e-13
6.453890415e-13
1.025559607e-12
1.613346051e-12
2.861677853e-12
5.462942121e-12
1.123591484e-11
2.620565007e-11
7.087270434e-11
2.342146205e-10
9.428873859e-10
3.604039197e-09
9.580520225e-09
1.827342230e-08
2.820349852e-08
2.175212281e-13
2.383387504e-13
2.824179562e-13
3.593706490e-13
4.887649717e-13
7.081511305e-13
1.091235192e-12
1.670962741e-12
2.853874770e-12
5.239859792e-12
1.032957514e-11
2.289076192e-11
5.781208853e-11
1.740348394e-10
6.365987538e-10
2.427423039e-09
7.019167674e-09
1.442735968e-08
2.350527191e-08
3.286559557e-08
3.314522175e-13
3.651882188e-13
4.371946871e-13
5.644894748e-13
7.821605437e-13
1.159095628e-12
1.716858727e-12
2.811937211e-12
4.966091037e-12
9.386630904e-12
1.977584074e-11
4.681404417e-11
1.293115147e-10
4.294882886e-10
1.586769979e-09
4.948479674e-09
1.109061634e-08
1.922731130e-08
2.820168139e-08
3.668110400e-08
5.016546214e-13
5.556296222e-13
6.717221305e-13
8.794327104e-13
1.240377056e-12
1.760836097e-12
2.741281407e-12
4.633800001e-12
8.526390583e-12
1.700708762e-11
3.778874349e-11
9.630407307e-11
2.907901057e-10
1.013352239e-09
3.330309094e-09
8.214544492e-09
1.533125256e-08
2.370803971e-08
3.226783494e-08
3.964258195e-08
7.521524832e-13
8.370126115e-13
1.021022951e-12
1.354253622e-12
1.825445541e-12
2.687915429e-12
4.349491176e-12
7.647224787e-12
1.456249419e-11
3.048896689e-11
7.206631681e-11
1.984724885e-10
6.396603737e-10
2.136372043e-09
5.800703077e-09
1.181693709e-08
1.944272616e-08
2.773970708e-08
3.567137281e-08
3.971070708e-08
1.115361563e-12
1.244148626e-12
1.528175952e-12
1.931869095e-12
2.677893359e-12
4.123404047e-12
6.894848521e-12
1.247040731e-11
2.465514316e-11
5.431683476e-11
1.371047042e-10
4.043055255e-10
1.317052743e-09
3.871159961e-09
8.717746841e-09
1.545536222e-08
2.326531258e-08
3.127125268e-08
3.841450267e-08
2.924825144e-08
1.660649750e-12
1.815579194e-12
2.111591339e-12
2.742508924e-12
4.005245389e-12
6.313486588e-12
1.079141996e-11
2.010815907e-11
4.139330925e-11
9.623150407e-11
2.587495746e-10
7.940695218e-10
2.435624346e-09
6.089568711e-09
1.180955981e-08
1.894953043e-08
2.672389443e-08
3.429329892e-08
4.062912344e-08
2.170818071e-08
2.168114480e-12
2.397846636e-12
2.944685597e-12
4.005763095e-12
5.927921855e-12
9.525631022e-12
1.667663878e-11
3.208345746e-11
6.894275620e-11
1.691900092e-10
4.783897440e-10
1.458766972e-09
3.991166021e-09
8.585764151e-09
1.488774373e-08
2.220243705e-08
2.979237855e-08
3.681832213e-08
3.744762012e-08
1.614903699e-08
2.955448252e-12
3.345921062e-12
4.202611248e-12
5.776487639e-12
8.666840255e-12
1.419116328e-11
2.547570206e-11
5.069597947e-11
1.138601620e-10
2.935487951e-10
8.510845296e-10
2.450994745e-09
5.873692629e-09
1.118240451e-08
1.783851943e-08
2.516912276e-08
3.247206773e-08
3.888021370e-08
2.941634901e-08
1.199902442e-08
4.166267487e-12
4.718742271e-12
5.942083815e-12
8.237734078e-12
1.252629807e-11
2.090323420e-11
3.851485941e-11
7.936713170e-11
1.860722225e-10
4.979862669e-10
1.429999641e-09
3.750566949e-09
7.944450263e-09
1.375706947e-08
2.059971277e-08
2.783582312e-08
3.477893099e-08
4.061203963e-08
2.333977620e-08
8.884362462e-09
5.790997448e-12
6.570763218e-12
8.311443109e-12
1.162264129e-11
1.791277020e-11
3.047589033e-11
5.767447263e-11
1.230645704e-10
2.996883820e-10
8.166959852e-10
2.241252863e-09
5.282041070e-09
1.008653838e-08
1.623397360e-08
2.314224529e-08
3.020692654e-08
3.673711431e-08
3.974616423e-08
1.865621896e-08
6.546388104e-09
7.956944480e-12
9.049766116e-12
1.150665054e-11
1.623533362e-11
2.536732352e-11
4.401946467e-11
8.557978758e-11
1.887366828e-10
4.729223896e-10
1.280611468e-09
3.270551492e-09
6.955434315e-09
1.221705805e-08
1.857031347e-08
2.545751230e-08
3.229678801e-08
3.837896229e-08
3.301316195e-08
1.499988295e-08
4.797817264e-09
1.082486753e-11
1.234376236e-11
1.578150518e-11
2.247281111e-11
3.560771098e-11
6.303453174e-11
1.258146720e-10
2.855858140e-10
7.263214956e-10
1.905799601e-09
4.472749014e-09
8.692718596e-09
1.428252737e-08
2.074508695e-08
2.754921248e-08
3.412490347e-08
3.975960968e-08
2.771847689e-08
1.211976083e-08
3.498210001e-09
1.459858849e-11
1.669251266e-11
2.146303417e-11
3.085190921e-11
4.958067420e-11
8.952183914e-11
1.831186713e-10
4.248956531e-10
1.078675364e-09
2.687139019e-09
5.791849384e-09
1.043572182e-08
1.625108006e-08
2.275123554e-08
2.942803321e-08
3.571315256e-08
4.104901607e-08
2.348758434e-08
9.836591662e-09
2.539658071e-09
1.953693276e-11
2.240181111e-11
2.897143725e-11
4.204268111e-11
6.852432638e-11
1.260986068e-10
2.634931559e-10
6.191569526e-10
1.541748732e-09
3.601435112e-09
7.175972040e-09
1.214471011e-08
1.810573707e-08
2.459037674e-08
3.110836601e-08
3.708477319e-08
4.007306993e-08
2.006377519e-08
8.018353890e-09
1.838292265e-09
2.596847816e-11
2.986120061e-11
3.884506945e-11
5.690888547e-11
9.403872053e-11
1.761021665e-10
3.741063426e-10
8.803683746e-10
2.116806106e-09
4.616282892e-09
8.583600926e-09
1.379430746e-08
1.983937976e-08
2.626927214e-08
3.260620703e-08
3.826486973e-08
3.510572922e-08
1.726495694e-08
6.565444096e-09
1.329001071e-09
3.430984290e-11
3.956574739e-11
5.177054704e-11
7.655488278e-11
1.281585568e-10
2.436454582e-10
5.228941204e-10
1.217599961e-09
2.794673257e-09
5.698436406e-09
9.984248062e-09
1.536956084e-08
2.145130380e-08
2.779754179e-08
3.393793666e-08
3.928383598e-08
3.102416389e-08
1.495785039e-08
5.401337480e-09
9.617269135e-10
4.508773376e-11
5.214220006e-11
6.861836446e-11
1.023771271e-10
1.734169601e-10
3.335792864e-10
7.178826931e-10
1.635050526e-09
3.558896896e-09
6.818692047e-09
1.135684275e-08
1.686272149e-08
2.294476857e-08
2.918619550e-08
3.511959912e-08
4.018828346e-08
2.763134076e-08
1.304254065e-08
4.466438619e-09
6.985013263e-10
5.896526834e-11
6.837974376e-11
9.048264005e-11
1.361161471e-10
2.328822900e-10
4.513132898e-10
9.660541193e-10
2.131241601e-09
4.389890374e-09
7.953673043e-09
1.268760650e-08
1.827096999e-08
2.432542275e-08
3.044668792e-08
3.616660121e-08
4.108538927e-08
2.478234800e-08
1.144257454e-08
3.713894045e-09
5.108531522e-10
7.677205759e-11
8.926428710e-11
1.187230689e-10
1.799002549e-10
3.101446330e-10
6.025059572e-10
1.272257557e-09
2.699649499e-09
5.268274602e-09
9.085729705e-09
1.396813980e-08
1.959469993e-08
2.560020120e-08
3.159032545e-08
3.709363300e-08
4.185535355e-08
2.236914047e-08
1.009856649e-08
3.106632035e-09
3.776014477e-10
9.953747016e-11
1.160151267e-10
1.550047794e-10
2.362707456e-10
4.092259118e-10
7.925634050e-10
1.638445327e-09
3.330313832e-09
6.176828744e-09
1.020215693e-08
1.519388980e-08
2.083636099e-08
2.677663134e-08
3.262793918e-08
3.791487258e-08
3.831412898e-08
2.030946286e-08
8.963786881e-09
2.615253482e-09
2.830959420e-10
1.285246606e-10
1.501199257e-10
2.013287963e-10
3.081725516e-10
5.344066003e-10
1.025978242e-09
2.063460683e-09
4.011670905e-09
7.101269470e-09
1.129416738e-08
1.636299223e-08
2.199968367e-08
2.786234212e-08
3.356967504e-08
3.864443817e-08
3.525661027e-08
1.853955433e-08
8.001065413e-09
2.216390158e-09
2.158938002e-10
1.652621727e-10
1.933637736e-10
2.600443333e-10
3.988934646e-10
6.899906734e-10
1.305800634e-09
2.543398730e-09
4.732062925e-09
8.030280165e-09
1.235598997e-08
1.747541143e-08
2.308906888e-08
2.886480337e-08
3.442493434e-08
3.929728152e-08
3.261635157e-08
1.700926136e-08
7.180577185e-09
1.891480730e-09
1.677693001e-10
2.115666481e-10
2.478435473e-10
3.338305609e-10
5.119486166e-10
8.798804259e-10
1.633274083e-09
3.072363998e-09
5.480715961e-09
8.955208051e-09
1.338407123e-08
1.853235224e-08
2.410925339e-08
2.979111240e-08
3.520234834e-08
3.989101918e-08
3.031920835e-08
1.567862807e-08
6.478227250e-09
1.625781056e-09
1.329299133e-10
2.695510817e-10
3.159596881e-10
4.256363739e-10
6.509337358e-10
1.107216008e-09
2.007746177e-09
3.643342749e-09
6.248231458e-09
9.869628835e-09
1.437649432e-08
1.953576916e-08
2.506504398e-08
3.064793679e-08
3.590978641e-08
4.045009105e-08
2.830683716e-08
1.451549298e-08
5.874420044e-09
1.407583257e-09
1.073650293e-10
3.416069126e-10
4.003742629e-10
5.385850271e-10
8.192264812e-10
1.374059790e-09
2.426857584e-09
4.248974204e-09
7.026725765e-09
1.076890237e-08
1.533252370e-08
2.048811835e-08
2.596114971e-08
3.144145944e-08
3.655444636e-08
4.101713671e-08
2.653287947e-08
1.349374201e-08
5.353145925e-09
1.227599927e-09
8.832660713e-11
4.303555357e-10
5.039331215e-10
6.758406744e-10
1.019718301e-09
1.681199530e-09
2.886921580e-09
4.882123279e-09
7.809777929e-09
1.164979666e-08
1.625223094e-08
2.139209170e-08
2.680209796e-08
3.217733399e-08
3.714288581e-08
4.169025931e-08
2.496013167e-08
1.259197797e-08
4.901256572e-09
1.078443901e-09
7.393283391e-11
5.385713441e-10
6.295763576e-10
8.403551259e-10
1.254569253e-09
2.028123391e-09
3.383392473e-09
5.536223716e-09
8.592273256e-09
1.251014387e-08
1.713626741e-08
2.225048303e-08
2.759215583e-08
3.286073588e-08
3.768114494e-08
4.137138534e-08
2.355834637e-08
1.179255399e-08
4.507901141e-09
9.542386100e-10
6.288866626e-11
6.690753420e-10
7.801292216e-10
1.034664082e-09
1.525018474e-09
2.413135674e-09
3.911300642e-09
6.205460326e-09
9.370202097e-09
1.334860870e-08
1.798565891e-08
2.306609738e-08
2.833531289e-08
3.349635019e-08
3.817483769e-08
3.923872424e-08
2.230275858e-08
1.108082488e-08
4.164102960e-09
8.502987101e-10
5.429488864e-11
8.245281512e-10
9.581153105e-10
1.260687345e-09
1.831298665e-09
2.833594529e-09
4.465615168e-09
6.884829041e-09
1.014048023e-08
1.416445667e-08
1.880165682e-08
2.384164789e-08
2.903526774e-08
3.408844014e-08
3.862927733e-08
3.731465500e-08
2.117290435e-08
1.044456666e-08
3.862416178e-09
7.628887744e-10
4.752098321e-11
1.007264820e-09
1.165578147e-09
1.519576029e-09
2.172659896e-09
3.286195297e-09
5.041509442e-09
7.570090140e-09
1.090078453e-08
1.495740661e-08
1.958568226e-08
2.457977194e-08
2.969541926e-08
3.464084987e-08
3.904962488e-08
3.557645780e-08
2.015174433e-08
9.873528860e-09
3.596631732e-09
6.890146498e-10
4.211821735e-11
1.219125726e-09
1.403924975e-09
1.811636648e-09
2.547485009e-09
3.767256240e-09
5.634504900e-09
8.257716112e-09
1.164938628e-08
1.572751700e-08
2.033919928e-08
2.528294602e-08
3.031887967e-08
3.515706706e-08
3.944112294e-08
3.399903274e-08
1.922497967e-08
9.359044748e-09
3.361532086e-09
6.262522362e-10
3.775850577e-11
1.461325052e-09
1.673826730e-09
2.136340744e-09
2.953477423e-09
4.272954570e-09
6.240581246e-09
8.944812021e-09
1.238503501e-08
1.647508057e-08
2.106369917e-08
2.595349165e-08
3.090849725e-08
3.564021858e-08
3.980938806e-08
3.256113744e-08
1.838057612e-08
8.893795293e-09
3.152767405e-09
5.726631768e-10
3.420478932e-11
1.734366801e-09
1.975191191e-09
2.492411367e-09
3.387860916e-09
4.799524124e-09
6.856168414e-09
9.629008653e-09
1.310686754e-08
1.720056000e-08
2.176067247e-08
2.659360289e-08
3.146687260e-08
3.609315132e-08
4.016092511e-08
3.124490587e-08
1.760834145e-08
8.471558794e-09
2.966678885e-09
5.266800033e-10
3.128248717e-11
2.038032002e-09
2.307205340e-09
2.877958502e-09
3.847583360e-09
5.343375253e-09
7.478177840e-09
1.030841027e-08
1.381430219e-08
1.790452033e-08
2.243154303e-08
2.720528547e-08
3.199637287e-08
3.651844175e-08
4.050401911e-08
3.003530704e-08
1.689958335e-08
8.087026495e-09
2.800178044e-09
4.870298513e-10
2.885940439e-11
2.371435822e-09
2.668431198e-09
3.290643537e-09
4.329491775e-09
5.901184146e-09
8.103946845e-09
1.098149309e-08
1.450701321e-08
1.858761925e-08
2.307769950e-08
2.779042113e-08
3.249914007e-08
3.691843153e-08
4.085047771e-08
2.891958622e-08
1.624686864e-08
7.735648002e-09
2.650650366e-09
4.526773135e-10
2.683597109e-11
2.733113771e-09
3.056940966e-09
3.727847144e-09
4.830459332e-09
6.469930648e-09
8.731203833e-09
1.164704977e-08
1.518483101e-08
1.925055654e-08
2.370045881e-08
2.835073974e-08
3.297713787e-08
3.729526370e-08
4.121925183e-08
2.788683629e-08
1.564377700e-08
7.413483910e-09
2.515847191e-09
4.227535169e-10
2.513191887e-11
3.121160996e-09
3.470462623e-09
4.186803802e-09
5.347488314e-09
7.046918162e-09
9.358032835e-09
1.230415041e-08
1.584773419e-08
1.989402681e-08
2.430107584e-08
2.888782470e-08
3.343214063e-08
3.765090863e-08
4.164414411e-08
2.692778556e-08
1.508481482e-08
7.117166275e-09
2.393882004e-09
3.965607811e-10
2.368725740e-11
3.533359246e-09
3.906513259e-09
4.664741910e-09
5.877771297e-09
7.629754674e-09
9.982824242e-09
1.295206353e-08
1.649580752e-08
2.051876599e-08
2.488071683e-08
2.940315073e-08
3.386576292e-08
3.798718933e-08
4.214804958e-08
2.603439846e-08
1.456520910e-08
6.843793614e-09
2.283151997e-09
3.735355963e-10
2.245766542e-11
3.967307259e-09
4.362527303e-09
5.158950943e-09
6.418727585e-09
8.216352101e-09
1.060422487e-08
1.359024531e-08
1.712921262e-08
2.112548767e-08
2.544049596e-08
2.989805938e-08
3.427947598e-08
3.830582851e-08
4.108402075e-08
2.519976222e-08
1.408081260e-08
6.590834185e-09
2.182275560e-09
3.532007276e-10
2.140538995e-11
4.420535915e-09
4.835943826e-09
5.666861478e-09
6.968013286e-09
8.804884764e-09
1.122112407e-08
1.421830341e-08
1.774817537e-08
2.171489499e-08
2.598145323e-08
3.037379725e-08
3.467461843e-08
3.860844788e-08
3.977964589e-08
2.441787643e-08
1.362801632e-08
6.356084374e-09
2.090062042e-09
3.351589249e-10
2.050034245e-11
4.890583373e-09
5.324289300e-09
6.186074900e-09
7.523533747e-09
9.393785507e-09
1.183260247e-08
1.483595253e-08
1.835296011e-08
2.228767087e-08
2.650455135e-08
3.083150103e-08
3.505241376e-08
3.889665119e-08
3.855291476e-08
2.368346389e-08
1.320364046e-08
6.137615392e-09
2.005484749e-09
3.190784630e-10
1.971839066e-11
5.375076355e-09
5.825215435e-09
6.714396958e-09
8.083421310e-09
9.981699499e-09
1.243789956e-08
1.544301203e-08
1.894385642e-08
2.284446282e-08
2.701069928e-08
3.127221357e-08
3.541398435e-08
3.917201842e-08
3.739917952e-08
2.299196647e-08
1.280491367e-08
5.933756851e-09
1.927663480e-09
3.046848727e-10
1.904026886e-11
5.871766328e-09
6.336537913e-09
7.249818879e-09
8.646031016e-09
1.056747350e-08
1.303640147e-08
1.603937465e-08
1.952119283e-08
2.338592482e-08
2.750074843e-08
3.169690507e-08
3.576034417e-08
3.943619416e-08
3.631190321e-08
2.233933853e-08
1.242939738e-08
5.743031615e-09
1.855836102e-09
2.917471580e-10
1.844966012e-11
6.378555958e-09
6.856249213e-09
7.790551827e-09
9.209912765e-09
1.115012381e-08
1.362762332e-08
1.662500564e-08
2.008529388e-08
2.391265068e-08
2.797547341e-08
3.210646141e-08
3.609244601e-08
3.969092298e-08
3.528497669e-08
2.172202243e-08
1.207491038e-08
5.564114936e-09
1.789314040e-09
2.800621097e-10
1.793466769e-11
6.893511466e-09
7.382524572e-09
8.334982831e-09
9.773812472e-09
1.172881539e-08
1.421116873e-08
1.719991473e-08
2.063650491e-08
2.442521646e-08
2.843561494e-08
3.250170703e-08
3.641115387e-08
3.993818341e-08
3.431298126e-08
2.113688605e-08
1.173954732e-08
5.395865409e-09
1.727511706e-09
2.694558452e-10
1.748050172e-11
7.414878736e-09
7.913714417e-09
8.881699545e-09
1.033662614e-08
1.230283946e-08
1.478673577e-08
1.776415208e-08
2.117515728e-08
2.492418190e-08
2.888186238e-08
3.288337785e-08
3.671727308e-08
4.018028213e-08
3.339111813e-08
2.058117201e-08
1.142163585e-08
5.237302551e-09
1.669949474e-09
2.598021068e-10
1.708173386e-11
7.941071817e-09
8.448347574e-09
9.429434335e-09
1.089741496e-08
1.287160807e-08
1.535409433e-08
1.831780928e-08
2.170159603e-08
2.541006262e-08
2.931484833e-08
3.325218990e-08
3.701154393e-08
4.042011059e-08
3.251512116e-08
2.005241169e-08
1.111968449e-08
5.087529297e-09
1.616187486e-09
2.509821329e-10
1.673042336e-11
8.470665940e-09
8.985107925e-09
9.977089543e-09
1.145534779e-08
1.343463378e-08
1.591307374e-08
1.886099316e-08
2.221615812e-08
2.588335896e-08
2.973517284e-08
3.360877605e-08
3.729466567e-08
4.066146052e-08
3.168120858e-08
1.954841831e-08
1.083233992e-08
4.945755281e-09
1.565834449e-09
2.428898322e-10
1.641945406e-11
9.002392959e-09
9.522830874e-09
1.052369460e-08
1.200973356e-08
1.399150183e-08
1.646355045e-08
1.939384483e-08
2.271917389e-08
2.634454399e-08
3.014339095e-08
3.395373325e-08
3.756729905e-08
4.090962349e-08
3.088598236e-08
1.906720286e-08
1.055841512e-08
4.811271537e-09
1.518546196e-09
2.354353991e-10
1.614324952e-11
9.535115206e-09
1.006049122e-08
1.106840210e-08
1.255996144e-08
1.454188361e-08
1.700546085e-08
1.991650784e-08
2.321096785e-08
2.679406344e-08
3.054001593e-08
3.428760770e-08
3.783007327e-08
4.117244103e-08
3.012643713e-08
1.860702344e-08
1.029683364e-08
4.683446991e-09
1.474021594e-09
2.285428691e-10
1.589706334e-11
1.006784337e-08
1.059718283e-08
1.161048438e-08
1.310552615e-08
1.508551402e-08
1.753875606e-08
2.042915140e-08
2.369187058e-08
2.723234369e-08
3.092554449e-08
3.461092479e-08
3.808358872e-08
4.146208128e-08
2.939986093e-08
1.816629455e-08
1.004663087e-08
4.561725045e-09
1.431996258e-09
2.221461932e-10
1.567685966e-11
1.059969334e-08
1.113211545e-08
1.214931063e-08
1.364599394e-08
1.562216829e-08
1.806343856e-08
2.093194500e-08
2.416216633e-08
2.765977868e-08
3.130042036e-08
3.492415147e-08
3.832843832e-08
4.179723579e-08
2.870383400e-08
1.774358142e-08
9.806945841e-09
4.445598341e-09
1.392233818e-09
2.161882342e-10
1.547912310e-11
1.112989614e-08
1.166460275e-08
1.268432249e-08
1.418099582e-08
1.615168749e-08
1.857953213e-08
2.142505705e-08
2.462217914e-08
2.807676262e-08
3.166507240e-08
3.522774159e-08
3.856520950e-08
4.216462484e-08
2.803616189e-08
1.733761282e-08
9.577001746e-09
4.334622473e-09
1.354527501e-09
2.106199838e-10
1.530086211e-11
1.165777000e-08
1.219403914e-08
1.321506157e-08
1.471023550e-08
1.667394517e-08
1.908706442e-08
2.190868806e-08
2.507217973e-08
2.848364509e-08
3.201990940e-08
3.552210702e-08
3.879448297e-08
4.144666444e-08
2.739487099e-08
1.694722902e-08
9.356093066e-09
4.228390067e-09
1.318691786e-09
2.053977797e-10
1.513940448e-11
1.218272369e-08
1.271989840e-08
1.374111157e-08
1.523345617e-08
1.718884992e-08
1.958610414e-08
2.238300686e-08
2.551246749e-08
2.888077663e-08
3.236529070e-08
3.580764134e-08
3.901687671e-08
4.046947341e-08
2.677817654e-08
1.657136975e-08
9.143591867e-09
4.126541878e-09
1.284562807e-09
2.004843367e-10
1.499247369e-11
1.270425377e-08
1.324173958e-08
1.426214925e-08
1.575045057e-08
1.769633322e-08
2.007672176e-08
2.284821503e-08
2.594329513e-08
2.926847857e-08
3.270156715e-08
3.608470199e-08
3.923302893e-08
3.952538074e-08
2.618445973e-08
1.620908484e-08
8.938915224e-09
4.028749478e-09
1.251994158e-09
1.958466371e-10
1.485805551e-11
1.322190528e-08
1.375916561e-08
1.477787084e-08
1.626106584e-08
1.819637866e-08
2.055900665e-08
2.330448417e-08
2.636493509e-08
2.964705572e-08
3.302908769e-08
3.635364904e-08
3.944364371e-08
3.861704983e-08
2.561225066e-08
1.585950970e-08
8.741543945e-09
3.934718454e-09
1.220854271e-09
1.914558908e-10
1.473433805e-11
1.373529790e-08
1.427185452e-08
1.528803757e-08
1.676515737e-08
1.868895629e-08
2.103305671e-08
2.375201793e-08
2.677763363e-08
3.001680226e-08
3.334814146e-08
3.661481530e-08
3.964949904e-08
3.774296324e-08
2.506021172e-08
1.552184718e-08
8.551006006e-09
3.844180243e-09
1.191026524e-09
1.872863168e-10
1.461979394e-11
1.424410618e-08
1.477951700e-08
1.579245847e-08
1.726263663e-08
1.917407805e-08
2.149897625e-08
2.419098688e-08
2.718163670e-08
3.037800477e-08
3.365903865e-08
3.686850186e-08
3.985150972e-08
3.690119542e-08
2.452710699e-08
1.519537390e-08
8.366868619e-09
3.756897532e-09
1.162406914e-09
1.833157096e-10
1.451304406e-11
1.474804524e-08
1.528191953e-08
1.629096052e-08
1.775342624e-08
1.965176832e-08
2.195686858e-08
2.462157949e-08
2.757718194e-08
3.073091003e-08
3.396204447e-08
3.711501512e-08
4.005075669e-08
3.608981783e-08
2.401182086e-08
1.487942596e-08
8.188733737e-09
3.672646788e-09
1.134900429e-09
1.795240279e-10
1.441284747e-11
1.524688052e-08
1.577886804e-08
1.678341926e-08
1.823748759e-08
2.012206947e-08
2.240685841e-08
2.504397985e-08
2.796448699e-08
3.107578646e-08
3.425741984e-08
3.735464817e-08
4.024855493e-08
3.530705440e-08
2.351332460e-08
1.457341001e-08
8.016246023e-09
3.591231590e-09
1.108422394e-09
1.758943137e-10
1.431817096e-11
1.574040590e-08
1.627018913e-08
1.726972940e-08
1.871477376e-08
2.058501592e-08
2.284905992e-08
2.545835603e-08
2.834377048e-08
3.141286124e-08
3.454542462e-08
3.758769386e-08
4.044661319e-08
3.455122831e-08
2.303067655e-08
1.427675964e-08
7.849074275e-09
3.512470794e-09
1.082897010e-09
1.724109015e-10
1.422799200e-11
1.622846288e-08
1.675575184e-08
1.774980478e-08
1.918528369e-08
2.104068314e-08
2.328360082e-08
2.586488836e-08
2.871524647e-08
3.174236532e-08
3.482627581e-08
3.781441758e-08
4.064714372e-08
3.382079481e-08
2.256300889e-08
1.398896293e-08
7.686917307e-09
3.436197976e-09
1.058254983e-09
1.690598931e-10
1.414149157e-11
1.671090731e-08
1.723545241e-08
1.822359251e-08
1.964902622e-08
2.148913554e-08
2.371060223e-08
2.626373880e-08
2.907911070e-08
3.206451065e-08
3.510020981e-08
3.803511216e-08
4.085318905e-08
3.311435162e-08
2.210951324e-08
1.370955091e-08
7.529490481e-09
3.362263526e-09
1.034434396e-09
1.658292818e-10
1.405795203e-11
1.718763396e-08
1.770920274e-08
1.869105817e-08
2.010600886e-08
2.193043637e-08
2.413018871e-08
2.665508144e-08
2.943555274e-08
3.237951595e-08
3.536743316e-08
3.825004657e-08
4.106902788e-08
3.243057831e-08
2.166946253e-08
1.343808669e-08
7.376549863e-09
3.290530295e-09
1.011380281e-09
1.627081643e-10
1.397669722e-11
1.765854893e-08
1.817694005e-08
1.915217299e-08
2.055627042e-08
2.236467477e-08
2.454248354e-08
2.703907537e-08
2.978476414e-08
3.268755793e-08
3.562815565e-08
3.845952794e-08
4.130092396e-08
3.176826834e-08
2.124217066e-08
1.317417078e-08
7.227850529e-09
3.220874802e-09
9.890410473e-10
1.596870611e-10
1.389714284e-11
1.812359749e-08
1.863861978e-08
1.960693312e-08
2.099983844e-08
2.279193621e-08
2.494762133e-08
2.741588044e-08
3.012692170e-08
3.298884176e-08
3.588256316e-08
3.866384002e-08
4.155819431e-08
3.112631142e-08
2.082700501e-08
1.291742582e-08
7.083181021e-09
3.153176084e-09
9.673720668e-10
1.567576894e-10
1.381875204e-11
1.858272384e-08
1.909421787e-08
2.005534852e-08
2.143675928e-08
2.321229889e-08
2.534572455e-08
2.778564823e-08
3.046219261e-08
3.328353948e-08
3.613084002e-08
3.886331735e-08
4.185371473e-08
3.050365355e-08
2.042336757e-08
1.266751011e-08
6.942337755e-09
3.087333808e-09
9.463306560e-10
1.539122766e-10
1.374106926e-11
1.903589476e-08
1.954371699e-08
2.049742775e-08
2.186709886e-08
2.362585996e-08
2.573691428e-08
2.814852777e-08
3.079074454e-08
3.357181604e-08
3.637318276e-08
3.905830843e-08
4.216901889e-08
2.989935025e-08
2.003072203e-08
1.242410288e-08
6.805141495e-09
3.023246874e-09
9.258787657e-10
1.511436588e-10
1.366366155e-11
1.948309423e-08
1.998710625e-08
2.093319494e-08
2.229090455e-08
2.403272372e-08
2.612131715e-08
2.850466552e-08
3.111273814e-08
3.385385131e-08
3.660975480e-08
3.924917668e-08
4.161177742e-08
2.931249737e-08
1.964855459e-08
1.218690903e-08
6.671413704e-09
2.960830290e-09
9.059835056e-10
1.484461076e-10
1.358615235e-11
1.992431270e-08
2.042441210e-08
2.136269435e-08
2.270824732e-08
2.443297312e-08
2.649905854e-08
2.885420804e-08
3.142832488e-08
3.412978584e-08
3.684072785e-08
3.943637171e-08
4.076725728e-08
2.874227712e-08
1.927639636e-08
1.195564631e-08
6.540995847e-09
2.899997276e-09
8.866116819e-10
1.458141462e-10
1.350827682e-11
2.035955614e-08
2.085563786e-08
2.178595781e-08
2.311919273e-08
2.482670542e-08
2.687025061e-08
2.919728768e-08
3.173765996e-08
3.439978242e-08
3.706627082e-08
3.962038236e-08
3.994054518e-08
2.818790696e-08
1.891380576e-08
1.173005721e-08
6.413745774e-09
2.840673280e-09
8.677346022e-10
1.432429962e-10
1.342970686e-11
2.078883807e-08
2.128082155e-08
2.220304383e-08
2.352381437e-08
2.521402622e-08
2.723501943e-08
2.953404462e-08
3.204087625e-08
3.466398576e-08
3.728655376e-08
3.980179353e-08
3.913728473e-08
2.764865965e-08
1.856036555e-08
1.150990522e-08
6.289522961e-09
2.782789393e-09
8.493289546e-10
1.407282253e-10
1.335025051e-11
2.121218946e-08
2.169998291e-08
2.261399260e-08
2.392218731e-08
2.559502512e-08
2.759348089e-08
2.986459921e-08
3.233810568e-08
3.492252048e-08
3.750173567e-08
3.998130090e-08
3.835740636e-08
2.712386723e-08
1.821568986e-08
1.129496089e-08
6.168198244e-09
2.726279808e-09
8.313679081e-10
1.382663604e-10
1.326972079e-11
2.162962447e-08
2.211317526e-08
2.301886078e-08
2.431439213e-08
2.596979965e-08
2.794575036e-08
3.018908673e-08
3.262949303e-08
3.517553651e-08
3.771199293e-08
4.015977589e-08
3.760010956e-08
2.661289032e-08
1.787941911e-08
1.108501405e-08
6.049655412e-09
2.671082933e-09
8.138315597e-10
1.358540383e-10
1.318794414e-11
2.204118855e-08
2.252043377e-08
2.341772193e-08
2.470050175e-08
2.633845711e-08
2.829193913e-08
3.050762506e-08
3.291515361e-08
3.542316326e-08
3.791748479e-08
4.033830818e-08
3.686447007e-08
2.611514886e-08
1.755120633e-08
1.087986366e-08
5.933777753e-09
2.617145892e-09
7.967000196e-10
1.334878694e-10
1.310477029e-11
2.244692851e-08
2.292181319e-08
2.381063083e-08
2.508059867e-08
2.670108641e-08
2.863215140e-08
3.082034195e-08
3.319521725e-08
3.566552065e-08
3.811838780e-08
4.051829219e-08
3.614955820e-08
2.563008596e-08
1.723074581e-08
1.067932849e-08
5.820468927e-09
2.564415408e-09
7.799546805e-10
1.311654784e-10
1.302003363e-11
2.284687773e-08
2.331737531e-08
2.419764847e-08
2.545477003e-08
2.705777861e-08
2.896650921e-08
3.112733630e-08
3.346980184e-08
3.590273315e-08
3.831489062e-08
4.070158300e-08
3.545446179e-08
2.515717276e-08
1.691772544e-08
1.048323488e-08
5.709622881e-09
2.512843525e-09
7.635795873e-10
1.288840521e-10
1.293362636e-11
2.324109398e-08
2.370715509e-08
2.457885573e-08
2.582309451e-08
2.740864151e-08
2.929510603e-08
3.142873223e-08
3.373902142e-08
3.613492169e-08
3.850717902e-08
4.089068167e-08
3.477832937e-08
2.469592435e-08
1.661186112e-08
1.029141826e-08
5.601154961e-09
2.462384753e-09
7.475573973e-10
1.266415994e-10
1.284543641e-11
2.362963065e-08
2.409123646e-08
2.495431850e-08
2.618565213e-08
2.775376711e-08
2.961804783e-08
3.172463696e-08
3.400298256e-08
3.636219846e-08
3.869546359e-08
4.108909481e-08
3.412034100e-08
2.424588762e-08
1.631289750e-08
1.010372232e-08
5.494977340e-09
2.412999150e-09
7.318748111e-10
1.244359199e-10
1.275539265e-11
2.401253666e-08
2.446966403e-08
2.532410648e-08
2.654252861e-08
2.809324095e-08
2.993544212e-08
3.201514772e-08
3.426179852e-08
3.658469092e-08
3.887997056e-08
4.130182214e-08
3.347972384e-08
2.380660960e-08
1.602057041e-08
9.920002302e-09
5.391006330e-09
2.364644851e-09
7.165182138e-10
1.222652563e-10
1.266343922e-11
2.438988005e-08
2.484251044e-08
2.568828845e-08
2.689380425e-08
2.842715765e-08
3.024738109e-08
3.230038159e-08
3.451556654e-08
3.680250432e-08
3.906095107e-08
4.153609958e-08
3.285577017e-08
2.337769005e-08
1.573465541e-08
9.740121620e-09
5.289171370e-09
2.317287396e-09
7.014771795e-10
1.201282358e-10
1.256958199e-11
2.476172085e-08
2.520983646e-08
2.604695067e-08
2.723956704e-08
2.875560558e-08
3.055395772e-08
3.258042837e-08
3.476438655e-08
3.701574853e-08
3.923867707e-08
4.180187642e-08
3.224779325e-08
2.295874525e-08
1.545492229e-08
9.563953486e-09
5.189397031e-09
2.270891039e-09
6.867384339e-10
1.180234414e-10
1.247378731e-11
2.512811093e-08
2.557171537e-08
2.640014898e-08
2.757988940e-08
2.907868709e-08
3.085527291e-08
3.285538260e-08
3.500836146e-08
3.722454938e-08
3.941347665e-08
4.210163683e-08
3.165515365e-08
2.254941192e-08
1.518114824e-08
9.391366481e-09
5.091616105e-09
2.225425579e-09
6.722929042e-10
1.159496960e-10
1.237605240e-11
2.548912262e-08
2.592820603e-08
2.674797243e-08
2.791485625e-08
2.939647387e-08
3.115141343e-08
3.312533864e-08
3.524758757e-08
3.742901338e-08
3.958572652e-08
4.189840624e-08
3.107724920e-08
2.214933089e-08
1.491314890e-08
9.222253410e-09
4.995769815e-09
2.180860548e-09
6.581318027e-10
1.139061184e-10
1.227640819e-11
2.584482722e-08