/*--------------------------------*- C++ -*----------------------------------*\
| =========                 |                                                 |
| \\      /  F ield         | OpenFOAM: The Open Source CFD Toolbox           |
|  \\    /   O peration     | Version:  5.x                                   |
|   \\  /    A nd           | Web:      www.OpenFOAM.org                      |
|    \\/     M anipulation  |                                                 |
\*---------------------------------------------------------------------------*/
FoamFile
{
    version     2.0;
    format      ascii;
    class       volScalarField;
    location    "3.5";
    object       CH3;
}
// * * * * * * * * * * * * * * * * * * * * * * * * * * * * * * * * * * * * * //

dimensions      [0 0 0 0 0 0 0];

internalField   nonuniform List<scalar>
51080
(
0.000000000e+00
0.000000000e+00
0.000000000e+00
0.000000000e+00
0.000000000e+00
0.000000000e+00
0.000000000e+00
0.000000000e+00
0.000000000e+00
0.000000000e+00
4.358009533e-11
6.130553271e-11
8.729537875e-11
1.352391857e-10
2.380676428e-10
4.819123925e-10
1.161582654e-09
3.607725692e-09
1.743136880e-08
1.838340735e-07
0.000000000e+00
0.000000000e+00
0.000000000e+00
0.000000000e+00
0.000000000e+00
0.000000000e+00
0.000000000e+00
0.000000000e+00
3.564630277e-11
4.736734665e-11
6.698130306e-11
9.608077813e-11
1.510633937e-10
2.732670098e-10
5.661160772e-10
1.395935310e-09
4.404655202e-09
1.997064980e-08
1.499029928e-07
1.172621305e-06
0.000000000e+00
0.000000000e+00
0.000000000e+00
0.000000000e+00
0.000000000e+00
0.000000000e+00
0.000000000e+00
3.853270786e-11
5.113991911e-11
7.255534722e-11
1.044392783e-10
1.642815232e-10
2.967862926e-10
6.082655436e-10
1.462764655e-09
4.400543059e-09
1.805362615e-08
1.095163817e-07
7.372236552e-07
2.659508432e-06
0.000000000e+00
0.000000000e+00
0.000000000e+00
0.000000000e+00
0.000000000e+00
3.341719559e-11
4.162325522e-11
5.455220996e-11
7.564872232e-11
1.113265395e-10
1.734933165e-10
3.103696328e-10
6.233282281e-10
1.439890537e-09
4.089250427e-09
1.515816647e-08
7.848138926e-08
4.786453233e-07
1.886231490e-06
4.030363121e-06
0.000000000e+00
0.000000000e+00
0.000000000e+00
0.000000000e+00
3.689597886e-11
4.547711800e-11
5.908568758e-11
8.148595774e-11
1.203469384e-10
1.808504389e-10
3.169879394e-10
6.183851049e-10
1.366975774e-09
3.653609954e-09
1.232069922e-08
5.568417589e-08
3.093554847e-07
1.317174106e-06
3.182503044e-06
5.015542377e-06
0.000000000e+00
3.263428677e-11
3.591655708e-11
4.141233605e-11
5.018537364e-11
6.422321869e-11
8.732881970e-11
1.271714076e-10
1.882334091e-10
3.188331602e-10
6.002934846e-10
1.267149941e-09
3.186840347e-09
9.837936746e-09
3.936280355e-08
1.979482357e-07
8.892946763e-07
2.436037195e-06
4.292756111e-06
5.535523604e-06
4.012583806e-11
4.255948645e-11
4.762495975e-11
5.625370326e-11
7.036284962e-11
9.365742439e-11
1.335379772e-10
1.935172833e-10
3.168912000e-10
5.736960887e-10
1.155394406e-09
2.734895058e-09
7.768004185e-09
2.778521351e-08
1.256112341e-07
5.754686991e-07
1.787633214e-06
3.534210290e-06
5.078456530e-06
5.556867837e-06
5.306438334e-11
5.679959113e-11
6.466203460e-11
7.830113394e-11
1.011740636e-10
1.401999351e-10
1.977249694e-10
3.116201811e-10
5.421996934e-10
1.041822993e-09
2.322055299e-09
6.092592621e-09
1.962934796e-08
7.943340638e-08
3.568700271e-07
1.243295745e-06
2.786916849e-06
4.437888602e-06
5.499853812e-06
4.993776252e-06
7.151570860e-11
7.725861183e-11
8.948877234e-11
1.111053411e-10
1.483034259e-10
2.018538716e-10
3.035719713e-10
5.049616844e-10
9.401063487e-10
1.964858343e-09
4.770442190e-09
1.392380590e-08
5.036518272e-08
2.138854637e-07
8.121264723e-07
2.085595252e-06
3.707481843e-06
5.080314544e-06
5.545315240e-06
3.489979236e-06
9.780067159e-11
1.066033549e-10
1.255872098e-10
1.597993080e-10
2.082047011e-10
2.975223183e-10
4.734707677e-10
8.381526559e-10
1.657587996e-09
3.741092699e-09
9.949711634e-09
3.222344812e-08
1.257473475e-07
4.971264986e-07
1.464073561e-06
2.946423077e-06
4.458807196e-06
5.447124199e-06
5.181984213e-06
2.134495623e-09
1.351906533e-10
1.483920308e-10
1.774835402e-10
2.189366662e-10
2.961338016e-10
4.486440871e-10
7.522610831e-10
1.401034923e-09
2.948076113e-09
7.185006750e-09
2.092261662e-08
7.375677668e-08
2.878679420e-07
9.536754205e-07
2.205962142e-06
3.722597508e-06
5.009349437e-06
5.540956178e-06
4.283928818e-06
2.115312987e-10
1.909511746e-10
2.068395102e-10
2.372835295e-10
3.026173093e-10
4.356196705e-10
6.867186988e-10
1.199674320e-09
2.350870058e-09
5.268089179e-09
1.386131996e-08
4.380856467e-08
1.610994901e-07
5.740846557e-07
1.536463075e-06
2.938446503e-06
4.365049759e-06
5.356934604e-06
5.359033983e-06
2.347125752e-06
7.080686830e-11
2.430075488e-10
2.667166107e-10
3.235229163e-10
4.353895840e-10
6.436074207e-10
1.050702128e-09
1.913914685e-09
3.948482062e-09
9.425941064e-09
2.667576168e-08
8.953893736e-08
3.227531811e-07
9.838522685e-07
2.169415040e-06
3.600462795e-06
4.858420884e-06
5.510542594e-06
4.871494133e-06
9.766146250e-10
2.973599038e-11
3.245411598e-10
3.654275412e-10
4.561834925e-10
6.266198790e-10
9.510643948e-10
1.605680634e-09
3.049219149e-09
6.623347924e-09
1.681870160e-08
5.067593111e-08
1.742386257e-07
5.772701191e-07
1.478051735e-06
2.789910660e-06
4.163204331e-06
5.204825072e-06
5.479730012e-06
3.978789969e-06
2.166996276e-10
1.370561297e-11
4.521852494e-10
5.114025968e-10
6.445871599e-10
9.016379067e-10
1.403446691e-09
2.448191214e-09
4.844769226e-09
1.107074808e-08
2.976317726e-08
9.369328740e-08
3.151490539e-07
9.189912437e-07
2.006711708e-06
3.359448214e-06
4.618020199e-06
5.413925967e-06
5.267554154e-06
2.349183969e-06
8.971087314e-11
6.618071231e-12
6.278577714e-10
7.139170983e-10
9.097657405e-10
1.295127443e-09
2.065795545e-09
3.720697133e-09
7.666702820e-09
1.838670711e-08
5.185611298e-08
1.659753777e-07
5.220780689e-07
1.321917695e-06
2.529322249e-06
3.859024370e-06
4.967244227e-06
5.497358583e-06
4.863446114e-06
2.130567218e-09
4.465938013e-11
3.278122773e-12
8.693330664e-10
9.941069922e-10
1.281055690e-09
1.855314892e-09
3.030648178e-09
5.631620228e-09
1.206571101e-08
3.023174655e-08
8.815418326e-08
2.777413463e-07
7.913992322e-07
1.754341603e-06
3.019745536e-06
4.282271224e-06
5.218458284e-06
5.465594847e-06
4.230967484e-06
3.851512690e-10
2.436102217e-11
1.648438632e-12
1.200415984e-09
1.380491521e-09
1.798700091e-09
2.649112501e-09
4.428883649e-09
8.482368280e-09
1.884989485e-08
4.898219624e-08
1.448587048e-07
4.351711610e-07
1.108168797e-06
2.189370948e-06
3.463840201e-06
4.630126844e-06
5.381182033e-06
5.326096792e-06
3.275860821e-06
1.683698744e-10
1.405335183e-11
8.375150068e-13
1.653036036e-09
1.911550031e-09
2.517583537e-09
3.768924836e-09
6.444159524e-09
1.270204296e-08
2.916552166e-08
7.777971276e-08
2.281682669e-07
6.375557216e-07
1.453088719e-06
2.608192128e-06
3.855711171e-06
4.907348771e-06
5.465032753e-06
5.081897047e-06
1.719039953e-06
9.159841258e-11
8.429264304e-12
4.292510379e-13
2.269995138e-09
2.639106833e-09
3.512242760e-09
5.341608445e-09
9.331504973e-09
1.888882347e-08
4.456612755e-08
1.203691744e-07
3.424887000e-07
8.776924165e-07
1.808300739e-06
2.999359053e-06
4.194590335e-06
5.120397023e-06
5.478774914e-06
4.729950025e-06
2.476504908e-09
5.540862830e-11
5.209335172e-12
2.220273191e-13
3.108554205e-09
3.632760893e-09
4.883451483e-09
7.540040209e-09
1.344026260e-08
2.785400169e-08
6.703420247e-08
1.806355102e-07
4.889609302e-07
1.144758667e-06
2.159961150e-06
3.356924284e-06
4.482642742e-06
5.276196061e-06
5.429845959e-06
4.258310326e-06
5.671910020e-10
3.577454320e-11
3.300168429e-12
1.160936438e-13
4.245105821e-09
4.985625845e-09
6.766651992e-09
1.059754126e-08
1.924054799e-08
4.065920318e-08
9.891183766e-08
2.618125632e-07
6.651200428e-07
1.427403520e-06
2.498530286e-06
3.678663510e-06
4.723560627e-06
5.381456542e-06
5.324139757e-06
3.640172567e-06
2.770301200e-10
2.417726321e-11
2.136877495e-12
6.153105120e-14
5.781140789e-09
6.821637459e-09
9.342551518e-09
1.482511910e-08
2.735077045e-08
5.863173476e-08
1.427268761e-07
3.657248630e-07
8.657651658e-07
1.715696181e-06
2.818078302e-06
3.964691657e-06
4.921672366e-06
5.442333683e-06
5.165903886e-06
2.818745695e-06
1.661192229e-10
1.691929766e-11
1.411853518e-12
3.318284111e-14
7.850777479e-09
9.304672161e-09
1.284989908e-08
2.063084464e-08
3.856126062e-08
8.333870772e-08
2.008464159e-07
4.923447497e-07
1.084375009e-06
2.001883781e-06
3.115369000e-06
4.216515487e-06
5.081431555e-06
5.464270442e-06
4.957656971e-06
1.658964836e-06
1.102445230e-10
1.217935186e-11
9.509556745e-13
1.829724310e-14
1.062996174e-08
1.264949987e-08
1.760021918e-08
2.853938929e-08
5.384629130e-08
1.165139843e-07
2.750873766e-07
6.398528269e-07
1.314363343e-06
2.280383354e-06
3.389044709e-06
4.436383099e-06
5.207114833e-06
5.451956489e-06
4.700049079e-06
1.476918839e-08
7.788779160e-11
8.979260501e-12
6.526144711e-13
1.037328325e-14
1.434738914e-08
1.713447214e-08
2.399363971e-08
3.920863213e-08
7.435444907e-08
1.599141222e-07
3.663903470e-07
8.051091147e-07
1.549864782e-06
2.547464696e-06
3.638991176e-06
4.626874882e-06
5.302674114e-06
5.409345532e-06
4.391591280e-06
1.237246757e-09
5.747939877e-11
6.759433539e-12
4.561779754e-13
6.078371415e-15
1.929678240e-08
2.311517695e-08
3.253395373e-08
5.343821334e-08
1.013708652e-07
2.151024162e-07
4.746614750e-07
9.842821069e-07
1.786075114e-06
2.800833454e-06
3.865876356e-06
4.790655567e-06
5.371660081e-06
5.339694654e-06
4.028119247e-06
5.835194799e-10
4.383207825e-11
5.183938624e-12
3.246954895e-13
3.695556528e-15
2.584980361e-08
3.103790421e-08
4.384017782e-08
7.216356666e-08
1.362535146e-07
2.832467511e-07
5.988231993e-07
1.173413210e-06
2.019288715e-06
3.039258943e-06
4.070828619e-06
4.930310499e-06
5.417215291e-06
5.245625901e-06
3.601771897e-06
3.587846251e-10
3.430456455e-11
4.043301034e-12
2.352702069e-13
2.335594878e-15
3.446795043e-08
4.145049156e-08
5.865041316e-08
9.643151327e-08
1.803034363e-07
3.649555786e-07
7.370338252e-07
1.368807494e-06
2.246789761e-06
3.262257022e-06
4.255223630e-06
5.048269073e-06
5.442074281e-06
5.129174916e-06
3.098956988e-06
2.479048398e-10
2.742737325e-11
3.202811100e-12
1.734890202e-13
1.534298441e-15
4.571146982e-08
5.500765345e-08
7.781327508e-08
1.273618981e-07
2.346364191e-07
4.602010901e-07
8.869816639e-07
1.567245545e-06
2.466683772e-06
3.469857897e-06
4.420530437e-06
5.146759151e-06
5.448599123e-06
4.991832900e-06
2.496052965e-06
1.832289682e-10
2.232782924e-11
2.573557135e-12
1.301458782e-13
1.046112424e-15
6.024163249e-08
7.246671648e-08
1.022665685e-07
1.660589309e-07
3.000576705e-07
5.683442071e-07
1.046168552e-06
1.766056349e-06
2.677723352e-06
3.662431651e-06
4.568234111e-06
5.227790686e-06
5.438811326e-06
4.834587814e-06
1.749600568e-06
1.416098736e-10
1.846097897e-11
2.095556411e-12
9.927935909e-14
7.386381599e-16
7.881360867e-08
9.467136401e-08
1.330013147e-07
2.135194500e-07
3.769681785e-07
6.882414595e-07
1.212133708e-06
1.963108463e-06
2.879157381e-06
3.840555773e-06
4.699767126e-06
5.293159930e-06
5.414420920e-06
4.657938616e-06
7.743279946e-07
1.130243817e-10
1.547254313e-11
1.727551282e-12
7.697360530e-14
5.386988630e-16
1.022593243e-07
1.225288270e-07
1.709853738e-07
2.705395531e-07
4.653268486e-07
8.183991794e-07
1.382597893e-06
2.156755464e-06
3.070598857e-06
4.004931775e-06
4.816481570e-06
5.344454417e-06
5.376867088e-06
4.461894016e-06
6.341409412e-09
9.245044263e-11
1.312456976e-11
1.440669264e-12
6.062303546e-14
4.047297486e-16
1.314589348e-07
1.569491341e-07
2.170921752e-07
3.376334609e-07
5.646669971e-07
9.571306318e-07
1.555544964e-06
2.345761479e-06
3.251931300e-06
4.156320850e-06
4.919633746e-06
5.383071731e-06
5.327343632e-06
4.245950703e-06
1.690535596e-09
7.710860943e-11
1.125282487e-11
1.214402433e-12
4.847084783e-14
3.124426670e-16
1.672787022e-07
1.987828015e-07
2.720247715e-07
4.149837427e-07
6.741631149e-07
1.102694657e-06
1.729253413e-06
2.529230694e-06
3.423224200e-06
4.295498793e-06
5.010369942e-06
5.410235150e-06
5.266833799e-06
4.009039103e-06
9.299192295e-10
6.534407873e-11
9.741282808e-12
1.033983584e-12
3.931818420e-14
2.472473812e-16
2.105139085e-07
2.487550827e-07
3.362504786e-07
5.024300518e-07
7.927239550e-07
1.253402086e-06
1.902286913e-06
2.706541796e-06
3.584677660e-06
4.423238094e-06
5.089738470e-06
5.427008943e-06
5.196127167e-06
3.749413611e-06
6.219454400e-10
5.611528599e-11
8.506331051e-12
8.886340276e-13
3.233573700e-14
2.001263334e-16
2.618258509e-07
3.074031127e-07
4.099587733e-07
5.994945037e-07
9.190940115e-07
1.407680108e-06
2.073476520e-06
2.877285825e-06
3.736579539e-06
4.540278126e-06
5.158680736e-06
5.434316189e-06
5.115846754e-06
3.464494145e-06
4.569122350e-10
4.873702666e-11
7.486589022e-12
7.703812972e-13
2.694141036e-14
1.653257773e-16
3.216865538e-07
3.750285265e-07
4.930490236e-07
7.054376786e-07
1.051944030e-06
1.564118076e-06
2.241890770e-06
3.041219454e-06
3.879271627e-06
4.647322715e-06
5.218041469e-06
5.432955507e-06
5.026459913e-06
3.150584563e-06
3.549499064e-10
4.274247142e-11
6.636366264e-12
6.732866862e-13
2.272432429e-14
1.391317126e-16
3.903378060e-07
4.516740897e-07
5.851478875e-07
8.193266568e-07
1.189948034e-06
1.721474133e-06
2.406797454e-06
3.198228418e-06
4.013126863e-06
4.745034317e-06
5.268582132e-06
5.423615705e-06
4.928295289e-06
2.802426485e-06
2.862266834e-10
3.780395182e-11
5.921145689e-12
5.928693435e-13
1.939001745e-14
1.190815259e-16
4.677737019e-07
5.371259374e-07
6.856489325e-07
9.401084712e-07
1.331835451e-06
1.878685842e-06
2.567639267e-06
3.348290644e-06
4.138529706e-06
4.834024002e-06
5.310975351e-06
5.406886107e-06
4.821551731e-06
2.412442803e-06
2.370922886e-10
3.368559857e-11
5.314528487e-12
5.257143942e-13
1.672502241e-14
1.034940537e-16
5.537487889e-07
6.309381700e-07
7.937672642e-07
1.066676625e-06
1.476428628e-06
2.034854237e-06
2.723997460e-06
3.491461342e-06
4.255871485e-06
4.914860383e-06
5.345826180e-06
5.383267303e-06
4.706304641e-06
1.969455671e-06
2.004267756e-10
3.021403998e-11
4.796079906e-12
4.691952922e-13
1.457302955e-14
9.120980526e-17
6.478015189e-07
7.324750210e-07
9.085990584e-07
1.197922896e-06
1.622661994e-06
2.189230468e-06
2.875568754e-06
3.627841610e-06
4.365536155e-06
4.988065006e-06
5.373669528e-06
5.353184874e-06
4.582509637e-06
1.456567097e-06
1.721591818e-10
2.725929590e-11
4.349785609e-12
4.212641506e-13
1.281701445e-14
8.138935326e-17
7.492981115e-07
8.409610661e-07
1.029173811e-06
1.332779616e-06
1.769591564e-06
2.341201756e-06
3.022147564e-06
3.757572539e-06
4.467891290e-06
5.054117113e-06
5.394978657e-06
5.316993897e-06
4.450003943e-06
8.487304800e-07
1.497996989e-10
2.472266112e-11
3.963047540e-12
3.803292891e-13
1.137044962e-14
7.344476066e-17
8.574773533e-07
9.555304325e-07
1.154506897e-06
1.470246325e-06
1.916391592e-06
2.490272062e-06
3.163599284e-06
3.880820978e-06
4.563296493e-06
5.113451839e-06
5.410176641e-06
5.274987981e-06
4.308498230e-06
1.339255661e-07
1.317407811e-10
2.252786457e-11
3.625846416e-12
3.451378653e-13
1.016856398e-14
6.696171596e-17
9.714986930e-07
1.075275321e-06
1.283630679e-06
1.609406864e-06
2.062352935e-06
2.636044243e-06
3.299852292e-06
3.997769347e-06
4.652090749e-06
5.166470489e-06
5.419632784e-06
5.227404230e-06
4.157573708e-06
4.675912201e-09
1.169015984e-10
2.061526026e-11
3.330117319e-12
3.146913447e-13
9.161369832e-15
6.161950336e-17
1.090485899e-06
1.199282127e-06
1.415625680e-06
1.749435770e-06
2.206870082e-06
2.778210574e-06
3.430884177e-06
4.108612148e-06
4.734595585e-06
5.213536020e-06
5.423677225e-06
5.174431075e-06
3.996662857e-06
2.103487292e-09
1.045292922e-10
1.893769070e-11
3.069333827e-12
2.881893864e-13
8.310373157e-15
5.717823833e-17
1.213559305e-06
1.326664136e-06
1.549635807e-06
1.889603404e-06
2.349436731e-06
2.916534645e-06
3.556707517e-06
4.213547282e-06
4.811113760e-06
5.254978961e-06
5.422597365e-06
5.116207174e-06
3.825027257e-06
1.322930270e-09
9.408381820e-11
1.745739416e-11
2.838171658e-12
2.649868563e-13
7.585680554e-15
5.345641759e-17
1.339867078e-06
1.456579855e-06
1.684881784e-06
2.029269612e-06
2.489629944e-06
3.050839292e-06
3.677365410e-06
4.312772483e-06
4.881926635e-06
5.291099765e-06
5.416645367e-06
5.052830450e-06
3.641734012e-06
9.477157738e-10
8.516950888e-11
1.614395416e-11
2.632278664e-12
2.445621941e-13
6.964044495e-15
5.031613951e-17
1.468602288e-06
1.588248900e-06
1.820658294e-06
2.167881326e-06
2.627103887e-06
3.180999000e-06
3.792922923e-06
4.406487997e-06
4.947304164e-06
5.322173012e-06
5.406042853e-06
4.984355498e-06
3.445607850e-06
7.281166717e-10
7.748924825e-11
1.497261566e-11
2.448050196e-12
2.264897204e-13
6.427099302e-15
4.764762412e-17
1.599015269e-06
1.720958761e-06
1.956343884e-06
2.304963005e-06
2.761577755e-06
3.306932788e-06
3.903463491e-06
4.494887109e-06
5.007491687e-06
5.348443037e-06
5.390980367e-06
4.910799804e-06
3.235174178e-06
5.844842609e-10
7.081641675e-11
1.392298714e-11
2.282467980e-12
2.104134859e-13
5.959908299e-15
4.537182135e-17
1.730419961e-06
1.854068401e-06
2.091388836e-06
2.440114599e-06
2.892827203e-06
3.428590947e-06
4.009081677e-06
4.578160172e-06
5.062719728e-06
5.370136178e-06
5.371624072e-06
4.832142062e-06
3.008566318e-06
4.835527895e-10
6.497545751e-11
1.297828123e-11
2.133036325e-12
1.960431530e-13
5.550464974e-15
4.340450319e-17
1.862199887e-06
1.987006542e-06
2.225320224e-06
2.572996496e-06
3.020675407e-06
3.545954286e-06
4.109880986e-06
4.656488030e-06
5.113204958e-06
5.387454624e-06
5.348110672e-06
4.748321664e-06
2.763419090e-06
4.089735450e-10
5.982851443e-11
1.212457954e-11
1.997683722e-12
1.831449285e-13
5.189898654e-15
4.170791946e-17
1.993805146e-06
2.119271597e-06
2.357725172e-06
2.703330803e-06
3.144989335e-06
3.659026492e-06
4.205972754e-06
4.730047805e-06
5.159145851e-06
5.400581615e-06
5.320561806e-06
4.659241450e-06
2.496678136e-06
3.517776675e-10
5.526569428e-11
1.135020142e-11
1.874634869e-12
1.715188441e-13
4.870571336e-15
4.023721096e-17
2.124750266e-06
2.250424707e-06
2.488255800e-06
2.830884240e-06
3.265671334e-06
3.767829519e-06
4.297470077e-06
4.799008322e-06
5.200728586e-06
5.409682755e-06
5.289071359e-06
4.564762475e-06
2.204343207e-06
3.066377063e-10
5.119864477e-11
1.064525177e-11
1.762389378e-12
1.609959481e-13
4.586082054e-15
3.895420790e-17
2.254611796e-06
2.380086733e-06
2.616615254e-06
2.955473441e-06
3.382650990e-06
3.872399806e-06
4.384490526e-06
4.863530562e-06
5.238125377e-06
5.414906221e-06
5.253718022e-06
4.464706320e-06
1.881091819e-06
2.701905587e-10
4.755524283e-11
1.000139221e-11
1.659663677e-12
1.514339738e-13
4.331218799e-15
3.782952070e-17
2.383019681e-06
2.507933593e-06
2.742555063e-06
3.076947689e-06
3.495886245e-06
3.972788930e-06
4.467149710e-06
4.923768712e-06
5.271495286e-06
5.416384299e-06
5.214557932e-06
4.358847427e-06
1.519752339e-06
2.402112786e-10
4.427662796e-11
9.411492604e-12
1.565360580e-12
1.427128699e-13
4.101719984e-15
3.683890982e-17
2.509660344e-06
2.633688530e-06
2.865871414e-06
3.195193273e-06
3.605355838e-06
4.069052790e-06
4.545565829e-06
4.979870814e-06
5.300985269e-06
5.414237184e-06
5.171632829e-06
4.246910543e-06
1.110765334e-06
2.151688952e-10
4.131391719e-11
8.869450688e-12
1.478542068e-12
1.347309424e-13
3.894027933e-15
3.596233366e-17
2.634263461e-06
2.757119478e-06
2.986397479e-06
3.310123040e-06
3.711053220e-06
4.161259968e-06
4.619853231e-06
5.031971298e-06
5.326731577e-06
5.408568640e-06
5.124966304e-06
4.128565716e-06
6.428173247e-07
1.939768469e-10
3.862634792e-11
8.370033085e-12
1.398391765e-12
1.274008548e-13
3.705172909e-15
3.518284871e-17
2.756602465e-06
2.878034260e-06
3.103995932e-06
3.421673489e-06
3.812990151e-06
4.249482414e-06
4.690123184e-06
5.080205941e-06
5.348861541e-06
5.399472239e-06
5.074563545e-06
4.003420683e-06
1.240009800e-07
1.758423118e-10
3.617978776e-11
7.908714004e-12
1.324210402e-12
1.206483071e-13
3.532681351e-15
3.448635948e-17
2.876486122e-06
2.996272582e-06
3.218563109e-06
3.529804235e-06
3.911189103e-06
4.333792893e-06
4.756489814e-06
5.124695653e-06
5.367488840e-06
5.387030990e-06
5.020415453e-06
3.871007608e-06
6.699800189e-09
1.601741778e-10
3.394535963e-11
7.481562404e-12
1.255384188e-12
1.144090304e-13
3.374435386e-15
3.386062766e-17
2.993757140e-06
3.111704123e-06
3.330014160e-06
3.634490151e-06
4.005682380e-06
4.414271561e-06
4.819057024e-06
5.165560847e-06
5.382721596e-06
5.371311996e-06
4.962494542e-06
3.730775810e-06
2.984976644e-09
1.465226015e-10
3.189843155e-11
7.085169359e-12
1.191382438e-12
1.086277230e-13
3.228666020e-15
3.329542065e-17
3.108289850e-06
3.224228396e-06
3.438293287e-06
3.735721405e-06
4.096508348e-06
4.490997806e-06
4.877932144e-06
5.202908917e-06
5.394657132e-06
5.352375568e-06
4.900755458e-06
3.582075303e-06
1.876573591e-09
1.345396686e-10
3.001801731e-11
6.716530124e-12
1.131737336e-12
1.032564372e-13
3.093856479e-15
3.278187867e-17
3.219979338e-06
3.333763298e-06
3.543354847e-06
3.833503843e-06
4.183717776e-06
4.564052898e-06
4.933212441e-06
5.236845702e-06
5.403383411e-06
5.330273127e-06
4.835139496e-06
3.424129852e-06
1.346619927e-09
1.239520412e-10
2.828607583e-11
6.373025599e-12
1.076039617e-12
9.825332783e-14
2.968716393e-15
3.231220934e-17
3.328746297e-06
3.440251044e-06
3.645173694e-06
3.927848390e-06
4.267358812e-06
4.633518095e-06
4.984998658e-06
5.267468468e-06
5.408983034e-06
5.305041800e-06
4.765566209e-06
3.256015710e-06
1.036929038e-09
1.145421156e-10
2.668696509e-11
6.052351269e-12
1.023927118e-12
9.358207957e-14
2.852125972e-15
3.187992471e-17
3.434530630e-06
3.543647535e-06
3.743739550e-06
4.018780254e-06
4.347488543e-06
4.699474051e-06
5.033381487e-06
5.294868730e-06
5.411531028e-06
5.276713105e-06
4.691935145e-06
3.076618096e-06
8.343344839e-10
1.061344171e-10
2.520713516e-11
5.752462126e-12
9.750832999e-13
8.921099029e-14
2.743135908e-15
3.147927606e-17
3.537287745e-06
3.643925585e-06
3.839049301e-06
4.106327882e-06
4.424165432e-06
4.761998867e-06
5.078450444e-06
5.319133708e-06
5.411091191e-06
5.245307154e-06
4.614128395e-06
2.884590005e-06
6.918078230e-10
9.858633582e-11
2.383476419e-11
5.471543626e-12
9.292229811e-13
8.511195106e-14
2.640914221e-15
3.110517748e-17
3.636989065e-06
3.741071853e-06
3.931113625e-06
4.190529929e-06
4.497451660e-06
4.821172662e-06
5.120292754e-06
5.340341887e-06
5.407726634e-06
5.210834439e-06
4.532004497e-06
2.678275981e-06
5.863224661e-10
9.178050021e-11
2.255957449e-11
5.207995117e-12
8.860961107e-13
8.126033678e-14
2.544761425e-15
3.075343273e-17
3.733616483e-06
3.835080062e-06
4.019948787e-06
4.271423353e-06
4.567406385e-06
4.877071122e-06
5.158987945e-06
5.358569144e-06
5.401487426e-06
5.173300343e-06
4.445399016e-06
2.455628212e-06
5.052683271e-10
8.561967028e-11
2.137242542e-11
4.960378680e-12
8.454788212e-13
7.763449819e-14
2.454052289e-15
3.041997835e-17
3.827165909e-06
3.925956352e-06
4.105577049e-06
4.349054537e-06
4.634096185e-06
4.929770042e-06
5.194615603e-06
5.373885442e-06
5.392422992e-06
5.132694289e-06
4.354118019e-06
2.214066389e-06
4.411665833e-10
8.002248854e-11
2.026531518e-11
4.727413257e-12
8.071699146e-13
7.421507688e-14
2.368242260e-15
3.010157940e-17
3.917638812e-06
4.013714906e-06
4.188029400e-06
4.423472604e-06
4.697583614e-06
4.979342167e-06
5.227248103e-06
5.386355134e-06
5.380570548e-06
5.089002100e-06
4.257940749e-06
1.950316730e-06
3.893014975e-10
7.492035788e-11
1.923115160e-11
4.507938337e-12
7.709906633e-13
7.098500382e-14
2.286864931e-15
2.979543394e-17
4.005047804e-06
4.098374564e-06
4.267340191e-06
4.494725329e-06
4.757930100e-06
5.025857691e-06
5.256957121e-06
5.396036541e-06
5.365968026e-06
5.042197423e-06
4.156609047e-06
1.660162632e-06
3.465513824e-10
7.025541729e-11
1.826363495e-11
4.300935820e-12
7.367800048e-13
6.792923888e-14
2.209505567e-15
2.949894373e-17
4.089408759e-06
4.179960749e-06
4.343546299e-06
4.562866376e-06
4.815199103e-06
5.069384837e-06
5.283808867e-06
5.402986729e-06
5.348640250e-06
4.992245982e-06
4.049833236e-06
1.338183640e-06
3.107693646e-10
6.597805546e-11
1.735715459e-11
4.105459172e-12
7.043938718e-13
6.503407039e-14
2.135806364e-15
2.920988693e-17
4.170747521e-06
4.258503994e-06
4.416689752e-06
4.627946105e-06
4.869454058e-06
5.109990595e-06
5.307865836e-06
5.407254273e-06
5.328611892e-06
4.939099357e-06
3.937271238e-06
9.776432016e-07
2.804305208e-10
6.204582656e-11
1.650668664e-11
3.920673344e-12
6.736986290e-13
6.228753911e-14
2.065455936e-15
2.892625020e-17
4.249090825e-06
4.334038867e-06
4.486814370e-06
4.690018130e-06
4.920753041e-06
5.147738607e-06
5.329188068e-06
5.408885542e-06
5.305898768e-06
4.882702441e-06
3.818536066e-06
5.716024693e-07
2.544209964e-10
5.842197343e-11
1.570774370e-11
3.745811588e-12
6.445782613e-13
5.967860374e-14
1.998170861e-15
2.864634620e-17
4.324469717e-06
4.406601651e-06
4.553963508e-06
4.749138296e-06
4.969156591e-06
5.182689438e-06
5.347830542e-06
5.407921382e-06
5.280510619e-06
4.822987890e-06
3.693176519e-06
1.303768440e-07
2.319106109e-10
5.507483469e-11
1.495629153e-11
3.580188566e-12
6.169234308e-13
5.719746249e-14
1.933695498e-15
2.836859611e-17
4.396919905e-06
4.476229931e-06
4.618183590e-06
4.805357385e-06
5.014725647e-06
5.214901110e-06
5.363845407e-06
5.404400135e-06
5.252453606e-06
4.759874014e-06
3.560674885e-06
8.271297114e-09
2.122660490e-10
5.197668769e-11
1.424869494e-11
3.423165365e-12
5.906383290e-13
5.483546814e-14
1.871819189e-15
2.809164790e-17
4.466477885e-06
4.542968516e-06
4.679523866e-06
4.858730403e-06
5.057513919e-06
5.244430508e-06
5.377282577e-06
5.398352939e-06
5.221725416e-06
4.693267168e-06
3.420421325e-06
3.599127072e-09
1.949975435e-10
4.910339569e-11
1.358166051e-11
3.274168446e-12
5.656320925e-13
5.258442057e-14
1.812346986e-15
2.781456705e-17
4.533183056e-06
4.606856717e-06
4.738029829e-06
4.909308563e-06
5.097576910e-06
5.271330026e-06
5.388186697e-06
5.389810645e-06
5.188319061e-06
4.623060093e-06
3.271710461e-06
2.248006745e-09
1.797190869e-10
4.643370274e-11
1.295221284e-11
3.132679998e-12
5.418239704e-13
5.043708069e-14
1.755108089e-15
2.753621323e-17
4.597076117e-06
4.667941090e-06
4.793752037e-06
4.957144059e-06
5.134969090e-06
5.295650548e-06
5.396601208e-06
5.378795318e-06
5.152221075e-06
4.549131003e-06
3.113703861e-06
1.609283134e-09
1.661231911e-10
4.394887134e-11
1.235766985e-11
2.998215195e-12
5.191401845e-13
4.838722035e-14
1.699946969e-15
2.725594311e-17
4.658200456e-06
4.726262163e-06
4.846735168e-06
5.002287761e-06
5.169740402e-06
5.317440455e-06
5.402562910e-06
5.365326726e-06
5.113410122e-06
4.471337548e-06
2.945409509e-06
1.238107395e-09
1.539620686e-10
4.163232515e-11
1.179556588e-11
2.870333146e-12
4.975121229e-13
4.642851508e-14
1.646735735e-15
2.697314502e-17
4.716595724e-06
4.781867894e-06
4.897026825e-06
5.044789324e-06
5.201940510e-06
5.336745876e-06
5.406108844e-06
5.349423220e-06
5.071860396e-06
4.389521522e-06
2.765638782e-06
9.960306883e-10
1.430332556e-10
3.946939104e-11
1.126366893e-11
2.748631392e-12
4.768766527e-13
4.455574333e-14
1.595354164e-15
2.668726597e-17
4.772306032e-06
4.834800209e-06
4.944676537e-06
5.084696146e-06
5.231618066e-06
5.353608456e-06
5.407270904e-06
5.331093630e-06
5.027539254e-06
4.303502595e-06
2.572948955e-06
8.260328811e-10
1.331704944e-10
3.744690832e-11
1.075992853e-11
2.632731758e-12
4.571772263e-13
4.276392491e-14
1.545686338e-15
2.639784453e-17
4.825375740e-06
4.885104674e-06
4.989728325e-06
5.122055904e-06
5.258817922e-06
5.368068023e-06
5.406080139e-06
5.310347252e-06
4.980403743e-06
4.213075675e-06
2.365580403e-06
7.003407780e-10
1.242355379e-10
3.555327159e-11
1.028249040e-11
2.522298989e-12
4.383600721e-13
4.104846705e-14
1.497642397e-15
2.610438012e-17
4.875845346e-06
4.932826751e-06
5.032226344e-06
5.156914562e-06
5.283582542e-06
5.380164623e-06
5.402559157e-06
5.287187473e-06
4.930405718e-06
4.118010651e-06
2.141353359e-06
6.038093450e-10
1.161123690e-10
3.377792347e-11
9.829641384e-12
2.417006631e-12
4.203763031e-13
3.940526562e-14
1.451127049e-15
2.580657886e-17
4.923758872e-06
4.978005561e-06
5.072217461e-06
5.189315666e-06
5.305955165e-06
5.389931525e-06
5.396732927e-06
5.261612740e-06
4.877488776e-06
4.018043853e-06
1.897536919e-06
5.274827162e-10
1.087034930e-10
3.211145246e-11
9.399810504e-12
2.316567698e-12
4.031801119e-13
3.783027709e-14
1.406065311e-15
2.550414659e-17
4.969157951e-06
5.020688345e-06
5.109743343e-06
5.219301362e-06
5.325975186e-06
5.397401820e-06
5.388621042e-06
5.233616427e-06
4.821586011e-06
3.912879053e-06
1.630698525e-06
4.657242202e-10
1.019260590e-10
3.054542980e-11
8.991547687e-12
2.220707775e-12
3.867301172e-13
3.632003625e-14
1.362380817e-15
2.519693203e-17
5.012083013e-06
5.060913531e-06
5.144845998e-06
5.246912619e-06
5.343678270e-06
5.402606264e-06
5.378238320e-06
5.203189935e-06
4.762622915e-06
3.802176940e-06
1.336512667e-06
4.148096955e-10
9.570898269e-11
2.907213269e-11
8.603522921e-12
2.129171316e-12
3.709861145e-13
3.487120979e-14
1.320009079e-15
2.488484969e-17
5.052576020e-06
5.098723539e-06
5.177565094e-06
5.272188500e-06
5.359100734e-06
5.405571703e-06
5.365600707e-06
5.170316546e-06
4.700513125e-06
3.685551421e-06
1.009719436e-06
3.721822326e-10
8.999154415e-11
2.768470655e-11
8.234509758e-12
2.041728401e-12
3.559124670e-13
3.348090902e-14
1.278895200e-15
2.456802305e-17
5.090676666e-06
5.134157261e-06
5.207942504e-06
5.295167242e-06
5.372274462e-06
5.406322186e-06
5.350716200e-06
5.134976668e-06
4.635159857e-06
3.562559088e-06
6.447671733e-07
3.360260705e-10
8.472119099e-11
2.637683762e-11
7.883377845e-12
1.958156523e-12
3.414747665e-13
3.214611420e-14
1.238985264e-15
2.424644662e-17
5.126422029e-06
5.167253900e-06
5.236012487e-06
5.315882883e-06
5.383233289e-06
5.404881195e-06
5.333591571e-06
5.097144637e-06
4.566454246e-06
3.432690573e-06
2.422210784e-07
3.050173811e-10
7.985232499e-11
2.514276431e-11
7.549060107e-12
1.878252345e-12
3.276418721e-13
3.086430983e-14
1.200231910e-15
2.392022480e-17
5.159850851e-06
5.198050409e-06
5.261814307e-06
5.334370140e-06
5.392004317e-06
5.401268217e-06
5.314229829e-06
5.056791498e-06
4.494272266e-06
3.295355867e-06
1.412408055e-08
2.781686075e-10
7.534498817e-11
2.397736741e-11
7.230598587e-12
1.801829333e-12
3.143841414e-13
2.963311527e-14
1.162594798e-15
2.358957337e-17
5.191000887e-06