/*--------------------------------*- C++ -*----------------------------------*\
| =========                 |                                                 |
| \\      /  F ield         | OpenFOAM: The Open Source CFD Toolbox           |
|  \\    /   O peration     | Version:  5.x                                   |
|   \\  /    A nd           | Web:      www.OpenFOAM.org                      |
|    \\/     M anipulation  |                                                 |
\*---------------------------------------------------------------------------*/
FoamFile
{
    version     2.0;
    format      ascii;
    class       volScalarField;
    location    "3.5";
    object       CH3CHO;
}
// * * * * * * * * * * * * * * * * * * * * * * * * * * * * * * * * * * * * * //

dimensions      [0 0 0 0 0 0 0];

internalField   nonuniform List<scalar>
51080
(
0.000000000e+00
0.000000000e+00
0.000000000e+00
0.000000000e+00
0.000000000e+00
0.000000000e+00
0.000000000e+00
0.000000000e+00
0.000000000e+00
0.000000000e+00
5.707559023e-11
8.296694745e-11
1.164930733e-10
1.691101321e-10
2.578533551e-10
4.057669667e-10
6.563119543e-10
1.101354592e-09
1.976831909e-09
3.896598410e-09
0.000000000e+00
0.000000000e+00
0.000000000e+00
0.000000000e+00
0.000000000e+00
0.000000000e+00
0.000000000e+00
0.000000000e+00
4.543911919e-11
6.397247663e-11
9.223337034e-11
1.289561264e-10
1.872532573e-10
2.870707096e-10
4.509299843e-10
7.255596902e-10
1.204338019e-09
2.079535220e-09
3.716972743e-09
5.725906832e-09
0.000000000e+00
0.000000000e+00
0.000000000e+00
0.000000000e+00
0.000000000e+00
0.000000000e+00
0.000000000e+00
5.085133545e-11
7.060983687e-11
1.009893961e-10
1.403351073e-10
2.018962188e-10
3.061635081e-10
4.735623758e-10
7.470515402e-10
1.210199900e-09
2.019818762e-09
3.436393974e-09
5.311894314e-09
6.078658185e-09
0.000000000e+00
0.000000000e+00
0.000000000e+00
0.000000000e+00
0.000000000e+00
4.284407986e-11
5.642890380e-11
7.645554966e-11
1.060457529e-10
1.495051765e-10
2.120960277e-10
3.175331945e-10
4.830824110e-10
7.451734746e-10
1.179623458e-09
1.911395014e-09
3.148531178e-09
4.886613924e-09
6.043345578e-09
5.619923713e-09
0.000000000e+00
0.000000000e+00
0.000000000e+00
0.000000000e+00
4.907470886e-11
6.306641496e-11
8.376759628e-11
1.145285835e-10
1.606400504e-10
2.201327776e-10
3.237187610e-10
4.832612570e-10
7.296726816e-10
1.130236448e-09
1.785428640e-09
2.865322208e-09
4.448943348e-09
5.834656723e-09
5.976517025e-09
4.770356022e-09
0.000000000e+00
4.203933172e-11
4.767486093e-11
5.684456045e-11
7.082335436e-11
9.167918148e-11
1.226696817e-10
1.688991996e-10
2.278203828e-10
3.263803593e-10
4.771155269e-10
7.055570697e-10
1.070689435e-09
1.653493873e-09
2.593841746e-09
4.010063925e-09
5.505660448e-09
6.094213807e-09
5.432289959e-09
3.761440617e-09
5.490823749e-11
5.892019840e-11
6.706965198e-11
8.036507215e-11
1.006903420e-10
1.310884330e-10
1.763300799e-10
2.333368960e-10
3.262473196e-10
4.665144708e-10
6.759874344e-10
1.005651163e-09
1.520962036e-09
2.336639946e-09
3.581776949e-09
5.085710365e-09
6.027098252e-09
5.849170102e-09
4.645495114e-09
2.724029198e-09
7.570700006e-11
8.137941643e-11
9.291497378e-11
1.117609926e-10
1.406055014e-10
1.837694524e-10
2.376710907e-10
3.236352659e-10
4.528814964e-10
6.432677220e-10
9.383667218e-10
1.391265113e-09
2.095566192e-09
3.174497016e-09
4.604194868e-09
5.798790809e-09
6.061319152e-09
5.306089868e-09
3.761151827e-09
1.733624308e-09
1.027231103e-10
1.105564440e-10
1.264933091e-10
1.525354661e-10
1.923775098e-10
2.417336434e-10
3.188859430e-10
4.355475771e-10
6.115443906e-10
8.723637834e-10
1.267498920e-09
1.872466457e-09
2.796194679e-09
4.094614144e-09
5.428468271e-09
6.082988817e-09
5.766170198e-09
4.610302387e-09
2.865944780e-09
8.270130661e-10
1.369583762e-10
1.474903042e-10
1.689319918e-10
2.039661911e-10
2.474978885e-10
3.152510587e-10
4.201234482e-10
5.769648155e-10
8.080016228e-10
1.151306505e-09
1.668584351e-09
2.452018318e-09
3.590078248e-09
4.945249547e-09
5.919439936e-09
6.030375222e-09
5.276423878e-09
3.854668793e-09
2.010935935e-09
3.027442176e-13
1.793394148e-10
1.929056417e-10
2.208056545e-10
2.566792746e-10
3.146604230e-10
4.074416665e-10
5.454321311e-10
7.472160573e-10
1.043925085e-09
1.484478172e-09
2.144355489e-09
3.116639770e-09
4.393528432e-09
5.580458412e-09
6.094067595e-09
5.754220886e-09
4.685825742e-09
3.096497937e-09
1.224003725e-09
6.351368598e-15
2.330636853e-10
2.467930970e-10
2.715815077e-10
3.193797492e-10
4.006976387e-10
5.196659342e-10
6.936672600e-10
9.477825955e-10
1.321033536e-09
1.873795432e-09
2.690073252e-09
3.825816756e-09
5.093590349e-09
5.952157145e-09
6.031216548e-09
5.343772163e-09
4.055670353e-09
2.370173216e-09
4.932512867e-10
6.517528224e-16
2.761652629e-10
2.940737699e-10
3.335876031e-10
4.008205950e-10
5.018302895e-10
6.498366196e-10
8.653550048e-10
1.179510671e-09
1.640152021e-09
2.317569881e-09
3.287830658e-09
4.511591985e-09
5.610735106e-09
6.092675335e-09
5.808884509e-09
4.861553147e-09
3.424737378e-09
1.695238501e-09
1.016083706e-13
1.069550152e-16
3.343654901e-10
3.603293045e-10
4.122896848e-10
4.946847833e-10
6.180791271e-10
7.986114812e-10
1.060951468e-09
1.442753176e-09
2.000546320e-09
2.808229939e-09
3.903270868e-09
5.101543792e-09
5.929524230e-09
6.059457192e-09
5.487468058e-09
4.349400170e-09
2.816764395e-09
1.079358446e-09
6.794949578e-15
2.276062543e-17
4.102429855e-10
4.409611036e-10
5.026589165e-10
6.015337585e-10
7.496984060e-10
9.662789404e-10
1.280613530e-09
1.737130220e-09
2.398955727e-09
3.329971390e-09
4.489684241e-09
5.551367005e-09
6.076662180e-09
5.905928709e-09
5.110054235e-09
3.834483848e-09
2.245565545e-09
5.031485004e-10
1.091029301e-15
5.712434228e-18
4.954803848e-10
5.316725636e-10
6.044885716e-10
7.214669714e-10
8.967828714e-10
1.152882669e-09
1.524105533e-09
2.061149561e-09
2.828454736e-09
3.858539185e-09
5.002302140e-09
5.854138608e-09
6.091393037e-09
5.673933425e-09
4.706256942e-09
3.333900359e-09
1.718253647e-09
3.158071724e-13
2.514484833e-16
1.602936200e-18
5.904628875e-10
6.327280433e-10
7.177942004e-10
8.544941842e-10
1.059300808e-09
1.358244356e-09
1.790672564e-09
2.411725846e-09
3.277611822e-09
4.364281374e-09
5.413569627e-09
6.026983731e-09
6.010362246e-09
5.394136176e-09
4.295911750e-09
2.857922813e-09
1.236605063e-09
2.111808984e-14
7.225385248e-17
4.867852845e-19
6.954125591e-10
7.442770364e-10
8.426110951e-10
1.000583776e-09
1.237118349e-09
1.581938960e-09
2.078854521e-09
2.783696937e-09
3.730840155e-09
4.819259639e-09
5.717071021e-09
6.095372675e-09
5.863150479e-09
5.088288440e-09
3.891952285e-09
2.412236088e-09
7.948372604e-10
4.130772324e-15
2.419436079e-17
1.568009887e-19
8.104636286e-10
8.664082646e-10
9.789549084e-10
1.159662717e-09
1.429989871e-09
1.823223638e-09
2.386260476e-09
3.169535508e-09
4.169963572e-09
5.204465438e-09
5.921314599e-09
6.084235876e-09
5.672207926e-09
4.771485015e-09
3.502509773e-09
1.999424056e-09
3.598461752e-10
1.156593569e-15
9.076796728e-18
5.292986891e-20
9.357011044e-10
9.991725378e-10
1.126811267e-09
1.331602284e-09
1.637519989e-09
2.080929181e-09
2.709355865e-09
3.559583327e-09
4.577296516e-09
5.512455515e-09
6.041527937e-09
6.014682322e-09
5.454049781e-09
4.453985916e-09
3.132406504e-09
1.619871283e-09
3.912346572e-13
4.003753535e-16
3.720870413e-18
1.859922060e-20
1.071175887e-09
1.142589018e-09
1.286127898e-09
1.516194602e-09
1.859106584e-09
2.353339555e-09
3.043334052e-09
3.942805282e-09
4.939147844e-09
5.745293050e-09
6.094091411e-09
5.903454294e-09
5.220595501e-09
4.142590605e-09
2.784206443e-09
1.272141693e-09
4.312704900e-14
1.606435345e-16
1.638995953e-18
6.784299365e-21
1.216908849e-09
1.296641315e-09
1.456795787e-09
1.713114644e-09
2.093866046e-09
2.638069260e-09
3.382187355e-09
4.307924922e-09
5.247731438e-09
5.910631878e-09
6.093880088e-09
5.763398904e-09
4.980313969e-09
3.841641806e-09
2.458941167e-09
9.525996645e-10
1.142479488e-14
7.202617994e-17
7.668803988e-19
2.569358929e-21
1.372881565e-09
1.461263068e-09
1.638625682e-09
1.921871959e-09
2.340552187e-09
2.931985797e-09
3.719100386e-09
4.645126196e-09
5.501047817e-09
6.018326139e-09
6.053385794e-09
5.604187055e-09
4.739124953e-09
3.553758245e-09
2.156614735e-09
6.532359924e-10
4.077301746e-15
3.525140660e-17
3.780713840e-19
1.013263946e-21
1.539021249e-09
1.636317409e-09
1.831311233e-09
2.141756597e-09
2.597477434e-09
3.231215310e-09
4.046804785e-09
4.947298599e-09
5.701416985e-09
6.078337951e-09
5.982680358e-09
5.433005879e-09
4.501085217e-09
3.280350954e-09
1.876535503e-09
3.520524661e-10
1.733328649e-15
1.853112831e-17
1.952503589e-19
4.182647276e-22
1.715175288e-09
1.821564865e-09
2.034386977e-09
2.371775089e-09
2.862457122e-09
3.531316474e-09
4.358352780e-09
5.210531165e-09
5.853687009e-09
6.099705936e-09
5.889705018e-09
5.255141771e-09
4.268894717e-09
3.022004112e-09
1.617530389e-09
3.073505042e-12
8.323413357e-16
1.034156412e-17
1.051762409e-19
1.818839583e-22
1.901081731e-09
2.016628621e-09
2.247181169e-09
2.610596880e-09
3.132794224e-09
3.827451964e-09
4.647868597e-09
5.433858486e-09
5.963778880e-09
6.090190131e-09
5.780635102e-09
5.074441472e-09
4.044275671e-09
2.778738827e-09
1.378054429e-09
1.533751665e-13
4.382262514e-16
6.073189713e-18
5.890320399e-20
8.381616451e-23
2.096332393e-09
2.220950938e-09
2.468766265e-09
2.856511760e-09
3.405344773e-09
4.114662183e-09
4.911057266e-09
5.618553094e-09
6.037736925e-09
6.056241154e-09
5.660232789e-09
4.893668705e-09
3.828248325e-09
2.550201200e-09
1.156202730e-09
4.604708719e-14
2.481743446e-16
3.727723967e-18
3.420838096e-20
4.108419817e-23
2.300334597e-09
2.433753135e-09
2.697917161e-09
3.107412156e-09
3.676661522e-09
4.388318811e-09
5.145382502e-09
5.767316652e-09
6.081209952e-09
6.003126625e-09
5.532147475e-09
4.714779084e-09
3.621337685e-09
2.335798288e-09
9.495983945e-10
1.908444605e-14
1.491689260e-16
2.378620629e-18
2.055753936e-20
2.143615217e-23
2.512269328e-09
2.653994866e-09
2.933082214e-09
3.360834329e-09
3.943051536e-09
4.644498363e-09
5.349948245e-09
5.883585872e-09
6.099224026e-09
5.935099301e-09
5.399159034e-09
4.539125745e-09
3.423717569e-09
2.134787718e-09
7.550515000e-10
9.317817653e-15
9.423017907e-17
1.570953233e-18
1.276000082e-20
1.188203982e-23
2.731061827e-09
2.880347048e-09
3.172376533e-09
3.614061380e-09
4.200858222e-09
4.880233582e-09
5.525181240e-09
5.971035358e-09
6.096120860e-09
5.855570305e-09
5.263374059e-09
4.367614271e-09
3.235320318e-09
1.946342500e-09
5.676853693e-10
5.061400273e-15
6.209005878e-17
1.069999188e-18
8.166679844e-21
6.970823144e-24
2.955354035e-09
3.111179311e-09
3.413633358e-09
3.864136846e-09
4.446718558e-09
5.093616937e-09
5.672445062e-09
6.033261356e-09
6.075585441e-09
5.767266517e-09
5.126380134e-09
4.200821380e-09
3.055917417e-09
1.769591692e-09
3.784955869e-10
2.971461055e-15
4.242293206e-17
7.493036019e-19
5.381329745e-21
4.308828312e-24
3.183506518e-09
3.344583945e-09
3.654466875e-09
4.108045772e-09
4.677778779e-09
5.283751154e-09
5.793683707e-09
6.073610640e-09
6.040711185e-09
5.672360243e-09
4.989362747e-09
4.039081796e-09
2.885174668e-09
1.603648375e-09
1.662103308e-10
1.852797650e-15
2.991235148e-17
5.380812810e-19
3.645364435e-21
2.792963650e-24
3.413635661e-09
3.578451117e-09
3.892289331e-09
4.342911680e-09
4.891846785e-09
5.450604702e-09
5.891129614e-09
6.095100828e-09
5.994078469e-09
5.572579496e-09
4.853199041e-09
3.882554658e-09
2.722692630e-09
1.447619096e-09
1.248629337e-12
1.212705021e-15
2.168038236e-17
3.953284110e-19
2.534991982e-21
1.889817069e-24
3.643663184e-09
3.810457643e-09
4.124473234e-09
4.566163044e-09
5.087444553e-09
5.594810796e-09
5.967101684e-09
6.100396939e-09
5.937832227e-09
5.469298627e-09
4.718529765e-09
3.731273625e-09
2.568037828e-09
1.300608325e-09
2.436812999e-13
8.262287346e-16
1.610015141e-17
2.965587249e-19
1.807098047e-21
1.329192720e-24
3.871324969e-09
4.038185228e-09
4.348502988e-09
4.775671848e-09
5.263787604e-09
5.717466520e-09
6.023871053e-09
6.091826970e-09
5.873750508e-09
5.363607844e-09
4.585814775e-09
3.585182712e-09
2.420759914e-09
1.161711816e-09
1.010059556e-13
5.822558912e-16
1.221631692e-17
2.267405961e-19
1.318748107e-21
9.681278587e-25
4.094300371e-09
4.259259217e-09
4.562109581e-09
4.969833008e-09
5.420700778e-09
5.819960206e-09
6.063577373e-09
6.071405437e-09
5.803308842e-09
5.256371665e-09
4.455374234e-09
3.444164366e-09
2.280408466e-09
1.029995371e-09
5.223198504e-14
4.223327548e-16
9.448800469e-18
1.764069341e-19
9.838510107e-22
7.277685320e-25
4.310334048e-09
4.471471762e-09
4.763382181e-09
5.147585169e-09
5.558502688e-09
5.903824509e-09
6.088190603e-09
6.040866801e-09
5.727729480e-09
5.148273583e-09
4.327422925e-09
3.308060396e-09
2.146540424e-09
9.044616146e-10
3.033747369e-14
3.140565966e-16
7.434555037e-18
1.394524222e-19
7.493181604e-22
5.627922428e-25
4.517354108e-09
4.672889896e-09
4.950839307e-09
5.308386002e-09
5.677876124e-09
5.970642733e-09
6.099497355e-09
6.001701029e-09
5.648027838e-09
5.039855092e-09
4.202095206e-09
3.176685696e-09
2.018729639e-09
7.839901020e-10
1.899719144e-14
2.386588378e-16
5.940333858e-18
1.118631275e-19
5.818293563e-22
4.464706910e-25
4.713564822e-09
4.861936939e-09
5.123454180e-09
5.452141117e-09
5.779757624e-09
6.021968536e-09
6.099095068e-09
5.955187264e-09
5.565046725e-09
4.931540546e-09
4.079465829e-09
3.049841051e-09
1.896564538e-09
6.672348579e-10
1.255903631e-14
1.848450840e-16
4.812561609e-18
9.094453634e-20
4.599983523e-22
3.624790255e-25
4.897516476e-09
5.037435093e-09
5.280638789e-09
5.579123925e-09
5.865234104e-09
6.059291900e-09
6.088407951e-09
5.902421199e-09
5.479486480e-09
4.823663841e-09
3.959562108e-09
2.927318575e-09
1.779653944e-09
5.524340537e-10
8.656455912e-15
1.455890085e-16
3.947902846e-18
7.485447394e-20
3.698306431e-22
3.004981288e-25
5.068143130e-09
5.198610167e-09
5.422197671e-09
5.689886614e-09
5.935470730e-09
6.084005804e-09
6.068694934e-09
5.844344012e-09
5.391932222e-09
4.716485825e-09
3.842380428e-09
2.808910289e-09
1.667625900e-09
4.370392989e-10
6.169455186e-15
1.163905148e-16
3.275394558e-18
6.231244179e-20
3.020079185e-22
2.538768712e-25
5.224755350e-09
5.345066883e-09
5.548266787e-09
5.785174764e-09
5.991651343e-09
6.097397700e-09
6.041067832e-09
5.781762772e-09
5.302869120e-09
4.610207632e-09
3.727889781e-09
2.694409894e-09
1.560126057e-09
3.169361122e-10
4.519922931e-15
9.429030141e-17
2.745371025e-18
5.241188946e-20
2.501727658e-22
2.181257176e-25
5.367019550e-09
5.476741663e-09
5.659236300e-09
5.865860781e-09
6.034941885e-09
6.100644912e-09
6.006506930e-09
5.715371983e-09
5.212704437e-09
4.504983710e-09
3.616043011e-09
2.583617450e-09
1.456817777e-09
1.847454197e-10
3.389285950e-15
7.729878097e-17
2.322576646e-18
4.450564015e-20
2.099799639e-22
1.902626801e-25
5.494906722e-09
5.593842161e-09
5.755693067e-09
5.932884443e-09
6.066459772e-09
6.094817019e-09
5.965874422e-09
5.645769590e-09
5.121777448e-09
4.400931452e-09
3.506781167e-09
2.476339448e-09
1.357377298e-09
3.008756398e-11
2.592500957e-15
6.404849035e-17
1.981569984e-18
3.812404861e-20
1.784046007e-22
1.682734630e-25
5.608639623e-09
5.696788086e-09
5.838348608e-09
5.987212837e-09
6.087262717e-09
6.080879435e-09
5.919930329e-09
5.573471139e-09
5.030371988e-09
4.298139064e-09
3.400034370e-09
2.372391120e-09
1.261491019e-09
8.955992521e-13
2.017491689e-15
5.358175421e-17
1.703695169e-18
3.292096214e-20
1.532818490e-22
1.506883335e-25
5.708636894e-09
5.786152811e-09
5.907997755e-09
6.029804789e-09
6.098336147e-09
6.059702972e-09
5.869343987e-09
5.498922369e-09
4.938725699e-09
4.196667396e-09
3.295729593e-09
2.271597257e-09
1.168852535e-09
3.328771607e-13
1.593865339e-15
4.521633726e-17
1.475106166e-18
2.863841293e-20
1.330523990e-22
1.364558563e-25
5.795455473e-09
5.862614293e-09
5.965474035e-09
6.061594651e-09
6.100594686e-09
6.032070455e-09
5.814705101e-09
5.422508510e-09
4.847038399e-09
4.096562618e-09
3.193790039e-09
2.173789834e-09
1.079151618e-09
1.748425432e-13
1.276035885e-15
3.845815522e-17
1.285398786e-18
2.508213131e-20
1.165783394e-22
1.248124073e-25
5.869751020e-09
5.926912636e-09
6.011624069e-09
6.083473295e-09
6.094877962e-09
5.998683755e-09
5.756533960e-09
5.344563444e-09
4.755476259e-09
3.997852164e-09
3.094137970e-09
2.078810211e-09
9.920737030e-10
1.056660056e-13
1.033720399e-15
3.294448601e-17
1.126676171e-18
2.210446772e-20
1.030225476e-22
1.151977288e-25
5.932235958e-09
5.979818603e-09
6.047277918e-09
6.096282615e-09
6.081955023e-09
5.960172478e-09
5.695290377e-09
5.265376552e-09
4.664178980e-09
3.900552440e-09
2.996694680e-09
1.986509894e-09
9.072850414e-10
6.911796812e-14
8.462973957e-16
2.840542113e-17
9.928708159e-19
1.959208178e-20
9.175973234e-23
1.071857258e-25
5.983649900e-09
6.022108159e-09
6.073244580e-09
6.100809506e-09
6.062527907e-09
5.917101859e-09
5.631380320e-09
5.185201009e-09
4.573262928e-09
3.804670340e-09
2.901383161e-09
1.896745720e-09
8.244219202e-10
4.763356680e-14
6.994455063e-16
2.463727581e-17
8.792539775e-19
1.745594140e-20
8.230794906e-23
1.004689959e-25
6.024735739e-09
6.054545604e-09
6.090292616e-09
6.097786722e-09
6.037235904e-09
5.869978487e-09
5.565163245e-09
5.104255131e-09
4.482825917e-09
3.710205829e-09
2.808127657e-09
1.809384084e-09
7.430658831e-10
3.408986849e-14
5.830321559e-16
2.148496195e-17
7.821418648e-19
1.562690032e-20
7.430015298e-23
9.475220986e-26
6.056227672e-09
6.077869848e-09
6.099151883e-09
6.087890292e-09
6.006658634e-09
5.819256390e-09
5.496958251e-09
5.022730232e-09
4.392948739e-09
3.617150481e-09
2.716855797e-09
1.724296999e-09
6.627218583e-10
2.511421975e-14
4.897686587e-16
1.882922541e-17
6.986429717e-19
1.405138980e-20
6.746928042e-23
8.989175516e-26
6.078835583e-09
6.092787207e-09
6.100503341e-09
6.071744577e-09
5.971325112e-09
5.765344389e-09
5.427048636e-09
4.940793177e-09
4.303699503e-09
3.525493830e-09
2.627495956e-09
1.641363957e-09
5.827652877e-10
1.893569715e-14
4.143272563e-16
1.657715728e-17
6.264356677e-19
1.268610993e-20
6.159812070e-23
8.573176188e-26
6.093237396e-09
6.099966666e-09
6.094984704e-09
6.049921182e-09
5.931713036e-09
5.708607712e-09
5.355685460e-09
4.858589728e-09
4.215134388e-09
3.435221106e-09
2.539979261e-09
1.560467878e-09
5.023707259e-10
1.455272979e-14
3.527631835e-16
1.465567886e-17
5.636605543e-19
1.149616572e-20
5.651292468e-23
8.214403990e-26
6.100077692e-09
6.100035616e-09
6.083186448e-09
6.022946316e-09
5.888256597e-09
5.649376881e-09
5.283092452e-09
4.776246794e-09
4.127299280e-09
3.346313687e-09
2.454241058e-09
1.481496428e-09
4.203851584e-10
1.136603088e-14
3.021126990e-16
1.300698993e-17
5.088107286e-19
1.045341316e-20
5.207701880e-23
7.903139446e-26
6.099959820e-09
6.093581519e-09
6.065655183e-09
5.991300286e-09
5.841350275e-09
5.587947460e-09
5.209468401e-09
4.693877104e-09
4.040231672e-09
3.258752031e-09
2.370217751e-09
1.404339715e-09
3.351049749e-10
9.000860785e-15
2.601314022e-16
1.158488284e-17
4.606608776e-19
9.534997212e-21
4.818205572e-23
7.631538302e-26
6.093451652e-09
6.081150980e-09
6.042895408e-09
5.955423071e-09
5.791350931e-09
5.524585177e-09
5.134991152e-09
4.611575694e-09
3.953961671e-09
3.172514333e-09
2.287847371e-09
1.328889529e-09
2.438831828e-10
7.214255958e-15
2.250948547e-16
1.035216829e-17
4.182090231e-19
8.722273061e-21
4.474055537e-23
7.393237043e-26
6.081080461e-09
6.063250541e-09
6.015372350e-09
5.915717024e-09
5.738583686e-09
5.459532198e-09
5.059818771e-09
4.529429731e-09
3.868515453e-09
3.087578055e-09
2.207073792e-09
1.255037902e-09
1.425320442e-10
5.843959149e-15
1.956677000e-16
9.278741642e-18
3.806252478e-19
7.999823630e-21
4.168166080e-23
7.182965437e-26
6.063336828e-09
6.040349389e-09
5.983512325e-09
5.872549205e-09
5.683342191e-09
5.393003307e-09
4.984092556e-09
4.447512685e-09
3.783911156e-09
3.003919718e-09
2.127838920e-09
1.182674926e-09
2.822602503e-11
4.778783216e-15
1.708060069e-16
8.340021459e-18
3.472256427e-19
7.354945309e-21
3.894789042e-23
6.996404253e-26
6.040674576e-09
6.012880052e-09
5.947708591e-09
5.826255529e-09
5.625894571e-09
5.325194310e-09
4.907938467e-09
4.365890390e-09
3.700163797e-09
2.921515312e-09
2.050090705e-09
1.111687643e-09
1.367792789e-12
3.940909903e-15
1.496866677e-16
7.515825703e-18
3.174366631e-19
6.777024576e-21
3.649150153e-23
6.829877433e-26
6.013514490e-09
5.981242492e-09
5.908321414e-09
5.777142740e-09
5.566483644e-09
5.256282122e-09
4.831469902e-09
4.284619253e-09
3.617284742e-09
2.840341035e-09
1.973776330e-09
1.041955653e-09
5.281390289e-13
3.274789856e-15
1.316542021e-16
6.789494568e-18
2.907796118e-19
6.257191035e-21
3.427344683e-23
6.680349756e-26
5.982244739e-09
5.945804523e-09
5.865682265e-09
5.725490637e-09
5.505329805e-09
5.186425167e-09
4.754787563e-09
4.203749607e-09
3.535282324e-09
2.760373276e-09
1.898846648e-09
9.733510336e-10
2.890667009e-13
2.740133978e-15
1.161844124e-16
6.147148219e-18
2.668494440e-19
5.787983164e-21
3.226109201e-23
6.545231565e-26
5.947222914e-09
5.906905080e-09
5.820094010e-09
5.671555328e-09
5.442634698e-09
5.115768354e-09
4.677981312e-09
4.123324116e-09
3.454160548e-09
2.681586366e-09
1.825252799e-09
9.057297006e-10
1.814801547e-13
2.307262551e-15
1.028544489e-16
5.577220530e-18
2.453040289e-19
5.363075507e-21
3.042726398e-23
6.422281829e-26
5.908779559e-09
5.864856005e-09
5.771835564e-09
5.615571050e-09
5.378581384e-09
5.044441413e-09
4.601132824e-09
4.043381706e-09
3.373923737e-09
2.603958135e-09
1.752946888e-09
8.389295868e-10
1.228331960e-13
1.954018009e-15
9.132036678e-17
5.070011525e-18
2.258515552e-19
4.977112675e-21
2.874894075e-23
6.309650042e-26
5.867218699e-09
5.819944274e-09
5.721163524e-09
5.557752476e-09
5.313336333e-09
4.972562548e-09
4.524314410e-09
3.963953987e-09
3.294571769e-09
2.527463277e-09
1.681883515e-09
7.727578188e-10
8.725785426e-14
1.663654858e-15
8.130138212e-17
4.617308641e-18
2.082440030e-19
4.625532823e-21
2.720689829e-23
6.205717998e-26
5.822821161e-09
5.772433576e-09
5.668311230e-09
5.498294295e-09
5.247050505e-09
4.900238501e-09
4.447589678e-09
3.885070403e-09
3.216104057e-09
2.452079614e-09
1.612016974e-09
7.069848060e-10
6.414226596e-14
1.423389968e-15
7.256665646e-17
4.212158202e-18
1.922669023e-19
4.304398572e-21
2.578465593e-23
6.109071910e-26
5.775844244e-09
5.722567251e-09
5.613494869e-09
5.437376204e-09
5.179862725e-09
4.827565695e-09
4.371017531e-09
3.806754565e-09
3.138518255e-09
2.377783352e-09
1.543302194e-09
6.413248802e-10
4.838165595e-14
1.223353281e-15
6.492591460e-17
3.848656462e-18
1.777365268e-19
4.010334088e-21
2.446849524e-23
6.018551733e-26
5.726526692e-09
5.670568199e-09
5.556911569e-09
5.375162816e-09
5.111898804e-09
4.754632221e-09
4.294649747e-09
3.729028671e-09
3.061810365e-09
2.304551903e-09
1.475693007e-09
5.754115291e-10
3.724263311e-14
1.055861451e-15
5.822022622e-17
3.521737526e-18
1.644937961e-19
3.740434633e-21
2.324642879e-23
5.933052613e-26
5.675086712e-09
5.616642014e-09
5.498743032e-09
5.311802908e-09
5.043274177e-09
4.681516530e-09
4.218532723e-09
3.651909585e-09
2.985976877e-09
2.232363006e-09
1.409144294e-09
5.087615967e-10
2.914682773e-14
9.148756580e-16
5.231749803e-17
3.227062754e-18
1.523999639e-19
3.492158394e-21
2.210817297e-23
5.851697692e-26
5.621725850e-09
5.560978091e-09
5.439156356e-09
5.247435454e-09
4.974093139e-09
4.608291220e-09
4.142708407e-09
3.575413965e-09
2.911010595e-09
2.161193872e-09
1.343608341e-09
4.407167848e-10
2.312897391e-14
7.956127120e-16
4.710667288e-17
2.960878033e-18
1.413349220e-19
3.263305644e-21
2.104500117e-23
5.773733782e-26
5.566631218e-09
5.503749749e-09
5.378303666e-09
5.182186164e-09
4.904452473e-09
4.535021681e-09
4.067213309e-09
3.499553184e-09
2.836905767e-09
2.091022580e-09
1.279035848e-09
3.703472637e-10
1.857169980e-14
6.942663227e-16
4.249430024e-17
2.719969284e-18
1.311933075e-19
3.051968595e-21
2.004926911e-23
5.698471552e-26
5.509972945e-09
5.445117663e-09
5.316326720e-09
5.116169919e-09
4.834437638e-09
4.461767376e-09
3.992080401e-09
3.424339583e-09
2.763656150e-09
2.021827905e-09
1.215375134e-09
2.962962799e-10
1.506593039e-14
6.077709098e-16
3.840119249e-17
2.501510541e-18
1.218830214e-19
2.856447977e-21
1.911443725e-23
5.625324538e-26
5.451908703e-09
5.385229427e-09
5.253355442e-09
5.049492972e-09
4.764130911e-09
4.388580547e-09
3.917338653e-09
3.349780474e-09
2.691252853e-09
1.953587428e-09
1.152570999e-09
2.165337836e-10
1.233245896e-14
5.336536060e-16
3.476017699e-17
2.303066521e-18
1.133220014e-19
2.675275106e-21
1.823483985e-23
5.553767070e-26
5.392585054e-09
5.324221279e-09
5.189507521e-09
4.982253282e-09
4.693603465e-09
4.315510829e-09
3.843015664e-09
3.275884622e-09
2.619688244e-09
1.886280886e-09
1.090561943e-09
1.280860514e-10
1.017590941e-14
4.698994613e-16
3.151391339e-17
2.122499700e-18
1.054392221e-19
2.507128039e-21
1.740542941e-23
5.483362416e-26
5.332135172e-09
5.262217551e-09
5.124892734e-09
4.914538811e-09
4.622922033e-09
4.242602806e-09
3.769134125e-09
3.202656672e-09
2.548954523e-09
1.819885177e-09
1.029279969e-09
2.990596779e-11
8.456872560e-15
4.148653797e-16
2.861340765e-17
1.957947531e-18
9.817062140e-20
2.350849142e-21
1.662171336e-23
5.413706512e-26
5.270682627e-09
5.199334088e-09
5.059612033e-09
4.846431886e-09
4.552148013e-09
4.169894671e-09
3.695713948e-09
3.130101558e-09
2.479041315e-09
1.754379265e-09
9.686519117e-10
1.741385530e-12
7.073869414e-15
3.671972348e-16
2.601649258e-17
1.807757726e-18
9.146030355e-20
2.205419844e-21
1.587993317e-23
5.344457591e-26
5.208342415e-09
5.135677023e-09
4.993758345e-09
4.778007978e-09
4.481336460e-09
4.097423295e-09
3.622774223e-09
3.058221532e-09
2.409940979e-09
1.689740900e-09
9.085870378e-10
6.694822802e-13
5.952000126e-15
3.257787129e-16
2.368689002e-17
1.670484224e-18
8.525762575e-20
2.069908556e-21
1.517668549e-23
5.275381218e-26
5.145218708e-09
5.071343693e-09
4.927416422e-09
4.709335460e-09
4.410538703e-09
4.025222350e-09
3.550330701e-09
2.987019304e-09
2.341642695e-09
1.625947498e-09
8.489847018e-10
3.703548482e-13
5.035097258e-15
2.896817643e-16
2.159319108e-17
1.544856580e-18
7.951785162e-20
1.943494307e-21
1.450898015e-23
5.206196780e-26
5.081409183e-09
5.006426513e-09
4.860665325e-09
4.640477245e-09
4.339800167e-09
3.953319511e-09
3.478397525e-09
2.916495160e-09
2.274136494e-09
1.562976260e-09
7.897216735e-10
2.355670750e-13
4.280583555e-15
2.581331666e-16
1.970827210e-17
1.429737378e-18
7.420108396e-20
1.825464718e-21
1.387412792e-23
5.136748003e-26
5.017003728e-09
4.941006589e-09
4.793576722e-09
4.571492569e-09
4.269164229e-09
3.881742359e-09
3.406987285e-09
2.846650174e-09
2.207414178e-09
1.500802945e-09
7.306494307e-10
1.615394769e-13
3.655820638e-15
2.304848445e-16
1.800844227e-17
1.324123194e-18
6.927120327e-20
1.715136620e-21
1.326986384e-23
5.066891114e-26
4.952084928e-09
4.875162088e-09
4.726217447e-09
4.502433604e-09
4.198668996e-09
3.810515104e-09
3.336109946e-09
2.777483437e-09
2.141463655e-09
1.439401779e-09
6.715828101e-10
1.161870186e-13
3.135502250e-15
2.061931062e-16
1.647310675e-17
1.227120910e-18
6.469578702e-20
1.611929883e-21
1.269409556e-23
4.996498106e-26
4.886728525e-09
4.808963261e-09
4.658648568e-09
4.433349174e-09
4.128348944e-09
3.739658547e-09
3.265775386e-09
2.708993218e-09
2.076274934e-09
1.378747244e-09
6.122866071e-10
8.640070660e-14
2.699868546e-15
1.847974080e-16
1.508421826e-17
1.137929043e-18
6.044594888e-20
1.515306028e-21
1.214485112e-23
4.925465289e-26
4.821005468e-09
4.742475705e-09
4.590927019e-09
4.364285544e-09
4.058237676e-09
3.669193051e-09
3.195991355e-09
2.641177883e-09
2.011837002e-09
1.318810365e-09
5.524586744e-10
6.586865400e-14
2.333341621e-15
1.659097868e-16
1.382603996e-17
1.055842756e-18
5.649521707e-20
1.424776994e-21
1.162052670e-23
4.853682610e-26
4.754981636e-09
4.675760054e-09
4.523104543e-09
4.295282644e-09
3.988363966e-09
3.599135585e-09
3.126764975e-09
2.574035205e-09
1.948138619e-09
1.259560089e-09
4.916978055e-10
5.120083039e-14
2.023529413e-15
1.491986096e-16
1.268468349e-17
9.802168353e-19
5.281990041e-20
1.339905205e-21
1.111951524e-23
4.781089648e-26
4.688716652e-09
4.608871880e-09
4.455229312e-09
4.226378370e-09
3.918754004e-09
3.529502086e-09
3.058101319e-09
2.507561657e-09
1.885168998e-09
1.200962525e-09
4.294593206e-10
4.042967458e-14
1.760538671e-15
1.343820292e-16
1.164795216e-17
9.104844288e-19
4.939828394e-20
1.260279149e-21
1.064048375e-23
4.707630863e-26
4.622265855e-09
4.541862002e-09
4.387344473e-09
4.157607769e-09
3.849432314e-09
3.460306677e-09
2.990005114e-09
2.441753714e-09
1.822915772e-09
1.142980054e-09
3.649862218e-10
3.234401197e-14
1.536395690e-15
1.212190609e-16
1.070506294e-17
8.461293787e-19
4.621096720e-20
1.185536485e-21
1.018212706e-23
4.633283220e-26
4.555681007e-09
4.474779203e-09
4.319491185e-09
4.089002648e-09
3.780421079e-09
3.391561301e-09
2.922480312e-09
2.376607811e-09
1.761365555e-09
1.085570217e-09
2.971956205e-10
2.616362731e-14
1.344633962e-15
1.095021327e-16
9.846493628e-18
7.866864535e-19
4.323985551e-20
1.115339989e-21
9.743317546e-24
4.558044490e-26
4.489008955e-09
4.407665805e-09
4.251706933e-09
4.020591992e-09
3.711740622e-09
3.323277728e-09
2.855529679e-09
2.312119437e-09
1.700506458e-09
1.028684898e-09
2.245133749e-10
2.136768002e-14
1.179995999e-15
9.905380752e-17
9.063814128e-18
7.317416644e-19
4.046887276e-20
1.049389931e-21
9.323059277e-24
4.481960279e-26
4.422293855e-09
4.340563258e-09
4.184025703e-09
3.952401940e-09
3.643408302e-09
3.255465412e-09
2.789154956e-09
2.248283829e-09
1.640324988e-09
9.722689220e-10
1.446777601e-10
1.759766433e-14
1.038171314e-15
8.972014239e-17
8.349542459e-18
6.809145317e-19
3.788309337e-20
9.873954217e-22
8.920395002e-24
4.405046292e-26
4.355576699e-09
4.273507184e-09
4.116479608e-09
3.884457657e-09
3.575440708e-09
3.188132897e-09
2.723358579e-09
2.185095098e-09
1.580805800e-09
9.162571431e-10
5.548969037e-11
1.460076150e-14
9.156130628e-16
8.136776449e-17
7.696985948e-18
6.338641903e-19
3.546901178e-20
9.291022095e-22
8.534470058e-24
4.327345910e-26
4.288893687e-09
4.206534290e-09
4.049097067e-09
3.816781490e-09
3.507854450e-09
3.121288116e-09
2.658140601e-09
2.122548650e-09
1.521933778e-09
8.605721891e-10
3.113192817e-12
1.219497112e-14
8.093822260e-16
7.388200027e-17
7.100235631e-18
5.902829491e-19
3.321421179e-20
8.742746974e-22
8.164523986e-24
4.248927537e-26
4.222279609e-09