/*--------------------------------*- C++ -*----------------------------------*\
| =========                 |                                                 |
| \\      /  F ield         | OpenFOAM: The Open Source CFD Toolbox           |
|  \\    /   O peration     | Version:  5.x                                   |
|   \\  /    A nd           | Web:      www.OpenFOAM.org                      |
|    \\/     M anipulation  |                                                 |
\*---------------------------------------------------------------------------*/
FoamFile
{
    version     2.0;
    format      ascii;
    class       volScalarField;
    location    "3.5";
    object       CH3O;
}
// * * * * * * * * * * * * * * * * * * * * * * * * * * * * * * * * * * * * * //

dimensions      [0 0 0 0 0 0 0];

internalField   nonuniform List<scalar>
51080
(
0.000000000e+00
0.000000000e+00
0.000000000e+00
0.000000000e+00
0.000000000e+00
0.000000000e+00
0.000000000e+00
0.000000000e+00
0.000000000e+00
0.000000000e+00
1.781906930e-27
4.045967879e-27
9.056807550e-27
2.358757951e-26
7.743126569e-26
3.233241705e-25
1.825585568e-24
1.624627584e-23
3.334943049e-22
3.357452013e-20
0.000000000e+00
0.000000000e+00
0.000000000e+00
0.000000000e+00
0.000000000e+00
0.000000000e+00
0.000000000e+00
0.000000000e+00
1.093373771e-27
2.226871321e-27
5.055635854e-27
1.139565653e-26
3.034332353e-26
1.042861755e-25
4.512734079e-25
2.639798988e-24
2.408621881e-23
4.379957047e-22
2.257354551e-20
1.594204105e-18
0.000000000e+00
0.000000000e+00
0.000000000e+00
0.000000000e+00
0.000000000e+00
0.000000000e+00
0.000000000e+00
1.353696008e-27
2.717289928e-27
6.153410379e-27
1.386726564e-26
3.667086403e-26
1.247413839e-25
5.251497250e-25
2.914515165e-24
2.422655938e-23
3.631461591e-22
1.218505352e-20
5.919435976e-19
1.068584652e-17
0.000000000e+00
0.000000000e+00
0.000000000e+00
0.000000000e+00
0.000000000e+00
9.486217490e-28
1.660698163e-27
3.202451667e-27
6.830087847e-27
1.609674476e-26
4.150400364e-26
1.377298206e-25
5.551440689e-25
2.845206074e-24
2.117120211e-23
2.607872088e-22
6.346851685e-21
2.409009616e-19
4.720541188e-18
3.321399383e-17
0.000000000e+00
0.000000000e+00
0.000000000e+00
0.000000000e+00
1.235228925e-27
2.083051611e-27
3.896743109e-27
8.141489087e-27
1.920542278e-26
4.559689437e-26
1.446628550e-25
5.496042550e-25
2.586073516e-24
1.713919838e-23
1.758621994e-22
3.252102310e-21
9.869708158e-20
2.100929468e-18
1.720682322e-17
7.182424490e-17
0.000000000e+00
9.028494404e-28
1.158971413e-27
1.662268815e-27
2.660532513e-27
4.759615516e-27
9.561609937e-27
2.175130299e-26
4.984660243e-26
1.471051289e-25
5.206741934e-25
2.241977940e-24
1.323799077e-23
1.145988158e-22
1.659591157e-21
4.013611134e-20
8.950667713e-19
8.766933237e-18
4.117755937e-17
1.277496377e-16
1.541207834e-27
1.785395137e-27
2.353120846e-27
3.505955749e-27
5.896772586e-27
1.121609702e-26
2.425581811e-26
5.303042731e-26
1.458688064e-25
4.778181011e-25
1.880671163e-24
9.902808106e-24
7.308903557e-23
8.469952757e-22
1.622608869e-20
3.570952740e-19
4.221846766e-18
2.313977711e-17
7.773888741e-17
2.030498119e-16
3.059712712e-27
3.595685238e-27
4.868163709e-27
7.539519962e-27
1.333607417e-26
2.699722660e-26
5.563503377e-26
1.414295465e-25
4.285576686e-25
1.542380715e-24
7.251189458e-24
4.601633364e-23
4.340631955e-22
6.574885147e-21
1.331955664e-19
1.866074088e-18
1.235036574e-17
4.657440983e-17
1.272332307e-16
3.030599365e-16
6.147194628e-27
7.327510704e-27
1.018883163e-26
1.639799243e-26
3.049184078e-26
5.821346234e-26
1.344385006e-25
3.730320799e-25
1.265571153e-24
5.270331019e-24
2.887096412e-23
2.246410530e-22
2.698777424e-21
4.720211840e-20
7.422884226e-19
6.087075661e-18
2.672683801e-17
7.928628334e-17
1.904642466e-16
4.380229347e-16
1.241741854e-26
1.500308077e-26
2.140523798e-26
3.576576597e-26
6.218277321e-26
1.292863071e-25
3.288160010e-25
1.013356153e-24
3.804632182e-24
1.816037238e-23
1.180873578e-22
1.134475621e-21
1.634779944e-20
2.647302619e-19
2.697202389e-18
1.432622772e-17
4.778373414e-17
1.210964519e-16
2.697658793e-16
6.059722266e-16
2.509292442e-26
3.060498320e-26
4.464316991e-26
6.907945304e-26
1.282305931e-25
2.957736781e-25
8.212529634e-25
2.753682715e-24
1.152161136e-23
6.339294465e-23
4.930877358e-22
5.708887646e-21
8.632502380e-20
1.051353941e-18
6.986927686e-18
2.720665118e-17
7.532890628e-17
1.720163946e-16
3.698073748e-16
9.616115814e-16
5.205134057e-26
6.146135658e-26
8.160755840e-26
1.341179328e-25
2.791719086e-25
6.874646935e-25
2.041447032e-24
7.471002956e-24
3.504707561e-23
2.235710751e-22
2.064439889e-21
2.684030860e-20
3.582667979e-19
3.016809312e-18
1.428498366e-17
4.475635360e-17
1.089478460e-16
2.326663228e-16
4.919924586e-16
1.227496460e-15
8.574590321e-26
1.037640851e-25
1.536529386e-25
2.790768719e-25
6.056310203e-25
1.579506067e-24
5.035924740e-24
2.020369969e-23
1.068138979e-22
7.895992257e-22
8.377092578e-21
1.092007850e-19
1.127341349e-18
6.733185252e-18
2.482612421e-17
6.665998852e-17
1.482787766e-16
3.045509119e-16
6.670103210e-16
1.350025187e-15
1.546888982e-25
1.965330193e-25
3.064461227e-25
5.748692892e-25
1.301926202e-24
3.592757800e-24
1.232483834e-23
5.439865418e-23
3.247455067e-22
2.746368399e-21
3.145263222e-20
3.631463035e-19
2.770353093e-18
1.253910977e-17
3.850904441e-17
9.247201353e-17
1.931761121e-16
3.897825732e-16
9.448879323e-16
1.332212907e-15
3.012006810e-25
3.847644121e-25
6.080304994e-25
1.173796071e-24
2.771670682e-24
8.093842377e-24
2.992484822e-23
1.455790486e-22
9.772872027e-22
9.174567557e-21
1.041838449e-19
9.747245376e-19
5.607711016e-18
2.051739486e-17
5.504165953e-17
1.217525828e-16
2.437939939e-16
4.858995614e-16
1.163220254e-15
1.210648964e-15
5.774581582e-25
7.434986852e-25
1.194900449e-24
2.373600574e-24
5.842804380e-24
1.806415621e-23
7.205534938e-23
3.859673655e-22
2.876145286e-21
2.857705495e-20
2.948626175e-19
2.161289008e-18
9.820459136e-18
3.056253348e-17
7.405548808e-17
1.541417330e-16
3.005857302e-16
5.905465348e-16
1.297333939e-15
1.031470358e-15
1.093622564e-24
1.420568023e-24
2.324500193e-24
4.752714312e-24
1.219859919e-23
3.994620995e-23
1.718722537e-22
1.008343342e-21
8.144841063e-21
8.066323913e-20
7.085553697e-19
4.105753152e-18
1.544717701e-17
4.246062781e-17
9.517819044e-17
1.893902288e-16
3.640919663e-16
8.071318226e-16
1.346438313e-15
8.348398229e-16
2.049577661e-24
2.686861616e-24
4.478244643e-24
9.426653861e-24
2.523277107e-23
8.751205456e-23
4.052515907e-22
2.575808882e-21
2.180131241e-20
2.023638454e-19
1.466497380e-18
6.917830953e-18
2.242018204e-17
5.595171816e-17
1.180734072e-16
2.273640237e-16
4.338532348e-16
9.980082238e-16
1.324441699e-15
6.484980532e-16
3.805831611e-24
5.035772687e-24
8.550403661e-24
1.853169347e-23
5.172854640e-23
1.898144931e-22
9.413580456e-22
6.371115336e-21
5.423248307e-20
4.487578881e-19
2.676501562e-18
1.063065047e-17
3.060759587e-17
7.077058865e-17
1.424577175e-16
2.680250722e-16
5.018972703e-16
1.148216198e-15
1.251164159e-15
4.875366997e-16
7.009292386e-24
9.361226852e-24
1.619244251e-23
3.613062726e-23
1.051123740e-22
4.071086895e-22
2.144188772e-21
1.509676546e-20
1.238030730e-19
8.856413468e-19
4.412760854e-18
1.521685679e-17
3.984752806e-17
8.667034403e-17
1.681049473e-16
3.113836490e-16
5.753733819e-16
1.252706767e-15
1.146325336e-15
3.572392493e-16
1.281555123e-23
1.727508087e-23
3.043730093e-23
6.989366903e-23
2.116526375e-22
8.616461821e-22
4.761246024e-21
3.392680927e-20
2.579318093e-19
1.577172116e-18
6.710541592e-18
2.060933611e-17
4.997138993e-17
1.034335869e-16
1.948421213e-16
3.573849059e-16
7.288295351e-16
1.313435973e-15
1.026391851e-15
2.566921827e-16
2.328035283e-23
3.167029233e-23
5.682267482e-23
1.341800241e-22
4.220054379e-22
1.794527312e-21
1.024026289e-20
7.169797030e-20
4.912225691e-19
2.575188455e-18
9.571085709e-18
2.671952324e-17
6.081853522e-17
1.208762755e-16
2.225417215e-16
4.056329882e-16
8.698303883e-16
1.336360443e-15
9.035205332e-16
1.818699222e-16
4.204526969e-23
5.771386779e-23
1.053945197e-22
2.555998925e-22
8.320974563e-22
3.664534190e-21
2.120065911e-20
1.417579544e-19
8.610123768e-19
3.913857875e-18
1.297057700e-17
3.345070617e-17
7.224370885e-17
1.388472532e-16
2.511105321e-16
4.545823846e-16
9.925675423e-16
1.329069655e-15
7.857452220e-16
1.277404821e-16
7.553132450e-23
1.045838110e-22
1.942362908e-22
4.828535899e-22
1.619487962e-21
7.307206536e-21
4.200883071e-20
2.618931619e-19
1.402263643e-18
5.609404519e-18
1.686919345e-17
4.070721409e-17
8.412063006e-17
1.572255107e-16
2.804767545e-16
4.984196550e-16
1.094451437e-15
1.299228872e-15
6.777215767e-16
8.944002681e-17
1.349980007e-22
1.884736328e-22
3.555894673e-22
9.036789655e-22
3.103701195e-21
1.416942544e-20
7.932131829e-20
4.531140753e-19
2.143675665e-18
7.662758571e-18
2.121858905e-17
4.839960687e-17
9.634249670e-17
1.759161424e-16
3.105723986e-16
5.209353304e-16
1.175221929e-15
1.253710336e-15
5.816197879e-16
6.279370806e-17
2.400555893e-22
3.377188372e-22
6.462546799e-22
1.673095256e-21
5.840425393e-21
2.661436912e-20
1.423839494e-19
7.376373212e-19
3.105778691e-18
1.006341042e-17
2.596739923e-17
5.644752869e-17
1.088212137e-16
1.948464410e-16
3.413097377e-16
6.212601793e-16
1.236130868e-15
1.198218612e-15
4.979461927e-16
4.446321075e-17
4.245658306e-22
6.013811291e-22
1.164808613e-21
3.058531936e-21
1.075845840e-20
4.825053293e-20
2.429024174e-19
1.136729532e-18
4.300780408e-18
1.279310912e-17
3.106494921e-17
6.478105893e-17
1.214854116e-16
2.139616060e-16
3.725439004e-16
7.172700071e-16
1.279279009e-15
1.137225718e-15
4.261878175e-16
3.191462447e-17
7.463681734e-22
1.063299097e-21
2.079193519e-21
5.508243605e-21
1.934393465e-20
8.421445988e-20
3.944426944e-19
1.668994090e-18
5.733487091e-18
1.582906045e-17
3.646351917e-17
7.334043207e-17
1.342786480e-16
2.332212240e-16
4.040075543e-16
8.063175407e-16
1.307130229e-15
1.074071308e-15
3.652873491e-16
2.330888659e-17
1.302913885e-21
1.864408012e-21
3.669153028e-21
9.748937266e-21
3.385167032e-20
1.413077570e-19
6.115008530e-19
2.349361589e-18
7.402742583e-18
1.914626209e-17
4.211973997e-17
8.207572454e-17
1.471569612e-16
2.525957616e-16
4.351830348e-16
8.872687995e-16
1.322195860e-15
1.011135761e-15
3.139566706e-16
1.736200792e-17
2.255660935e-21
3.236942987e-21
6.388304297e-21
1.691712148e-20
5.751808042e-20
2.279160019e-19
9.084778397e-19
3.188754203e-18
9.302941330e-18
2.271928412e-17
4.799490848e-17
9.094588365e-17
1.600872899e-16
2.720628738e-16
4.650138414e-16
9.596495660e-16
1.326839397e-15
9.500340315e-16
2.708717938e-16
1.320298719e-17
3.866678271e-21
5.554533052e-21
1.095026056e-20
2.871245186e-20
9.472539234e-20
3.536975111e-19
1.298778252e-18
4.194235403e-18
1.142538137e-17
2.652345527e-17
5.405539915e-17
9.991764150e-17
1.730455667e-16
2.916049313e-16
4.911349120e-16
1.023456435e-15
1.323176318e-15
8.917949502e-16
2.347844726e-16
1.025148108e-17
6.551169805e-21
9.401882309e-21
1.844083615e-20
4.756002550e-20
1.510658427e-19
5.290965380e-19
1.794166297e-18
5.369461154e-18
1.375942526e-17
3.053549277e-17
6.027223636e-17
1.089646394e-16
1.860147630e-16
3.112048825e-16
5.073507324e-16
1.079001333e-15
1.313033414e-15
8.370103371e-16
2.045717306e-16
8.123087899e-18
1.094926064e-20
1.566766569e-20
3.044517225e-20
7.675280815e-20
2.332743348e-19
7.647833376e-19
2.404395735e-18
6.715255432e-18
1.629333177e-17
3.473401292e-17
6.662083215e-17
1.180662653e-16
1.989840160e-16
3.308433332e-16
5.289456311e-16
1.126796412e-15
1.297950256e-15
7.859609567e-16
1.792567271e-16
6.562824357e-18
1.801871642e-20
2.565292205e-20
4.918139389e-20
1.205393657e-19
3.490234913e-19
1.071114117e-18
3.137096407e-18
8.230183255e-18
1.901499043e-17
3.909965215e-17
7.308063670e-17
1.272068734e-16
2.119469039e-16
3.504939773e-16
5.883879053e-16
1.167462034e-15
1.279195148e-15
7.387136999e-16
1.580072910e-16
5.400355412e-18
2.913977048e-20
4.118927856e-20
7.761674554e-20
1.841290202e-19
5.066162671e-19
1.457690449e-18
3.997850551e-18
9.911107381e-18
2.191231773e-17
4.361503940e-17
7.963443632e-17
1.363749863e-16
2.249011097e-16
3.701178716e-16
6.457231794e-16
1.201665268e-15
1.257797865e-15
6.951927114e-16
1.401261357e-16
4.520826351e-18
4.622696935e-20
6.475079634e-20
1.195409257e-19
2.736009631e-19
7.146247746e-19
1.933054994e-18
4.990346159e-18
1.175368313e-17
2.497360032e-17
4.826495392e-17
8.626835801e-17
1.455624798e-16
2.378469444e-16
3.896552259e-16
7.004081795e-16
1.230073977e-15
1.234580127e-15
6.552310693e-16
1.250327328e-16
3.845671968e-18
7.182972706e-20
9.953792820e-20
1.795750594e-19
3.957236577e-19
9.815332950e-19
2.504500026e-18
6.116627357e-18
1.375270959e-17
2.818773816e-17
5.303592832e-17
9.297100993e-17
1.547639981e-16
2.507871634e-16
4.090141174e-16
7.522089940e-16
1.253332327e-15
1.210188543e-15
6.186065580e-16
1.122442165e-16
3.319908582e-18
1.092033036e-19
1.495134601e-19
2.631055871e-19
5.577139678e-19
1.315421439e-18
3.178024039e-18
7.377357530e-18
1.590245099e-17
3.154432008e-17
5.791626204e-17
9.973323793e-17
1.639765652e-16
2.637254357e-16
4.280508496e-16
8.010098364e-16
1.272042180e-15
1.185128264e-15
5.850750148e-16
1.013663211e-16
2.905215690e-18
1.623310090e-19
2.193770987e-19
3.761475121e-19
7.669647050e-19
1.723725981e-18
3.958315659e-18
8.772035892e-18
1.819690808e-17
3.503371137e-17
6.289593688e-17
1.065480614e-16
1.731991131e-16
2.766667772e-16
4.465377843e-16
8.467791591e-16
1.286755859e-15
1.159788194e-15
5.543836327e-16
9.207527418e-17
2.574374208e-18
2.358879414e-19
3.144756348e-19
5.251528687e-19
1.030781688e-18
2.213068798e-18
4.848871541e-18
1.029927862e-17
2.062993299e-17
3.864700654e-17
6.796617171e-17
1.134098857e-16
1.824321297e-16
2.896164020e-16
4.641049582e-16
8.895437465e-16
1.297971460e-15
1.134460767e-15
5.262830111e-16
8.410542230e-17
2.307561670e-18
3.351478624e-19
4.406570007e-19
7.167919468e-19
1.356155109e-18
2.789169163e-18
5.852080646e-18
1.195697131e-17
2.319549102e-17
4.237615208e-17
7.311956312e-17
1.203147211e-16
1.916771404e-16
3.025792922e-16
4.801269777e-16
9.293741565e-16
1.306133347e-15
1.109364018e-15
5.005332635e-16
7.723875181e-17
2.090327054e-18
4.658362420e-19
6.040886304e-19
9.577346456e-19
1.749572313e-18
3.456809600e-18
6.969353615e-18
1.374245407e-17
2.588760153e-17
4.621384459e-17
7.834978016e-17
1.272597192e-16
2.009368898e-16
3.155598010e-16
4.934838673e-16
9.663703096e-16
1.311634969e-15
1.084655937e-15
4.769059278e-16
7.129251788e-17
1.911571830e-18
6.339589284e-19
8.110613211e-19
1.254443613e-18
2.216891919e-18
4.219857442e-18
8.201271397e-18
1.565271311e-17
2.870051885e-17
5.015332704e-17
8.365152228e-17
1.342428927e-16
2.102146989e-16
3.285608292e-16
5.020386418e-16
1.000650551e-15
1.314823433e-15
1.060450019e-15
4.551946188e-16
6.611917966e-17
1.763189256e-18
8.456139970e-19
1.067795914e-18
1.613019298e-18
2.763264654e-18
5.081296612e-18
9.547703553e-18
1.768441326e-17
3.162874870e-17
5.418869390e-17
8.902021354e-17
1.412632647e-16
2.195145220e-16
3.415831184e-16
5.024885501e-16
1.032346201e-15
1.316001453e-15
1.036823740e-15
4.352113968e-16
6.159923091e-17
1.639289538e-18
1.106814776e-18
1.380279184e-18
2.039060520e-18
3.393099147e-18
6.043314859e-18
1.100790868e-17
1.983406958e-17
3.466705873e-17
5.831456115e-17
9.445217422e-17
1.483204269e-16
2.288407227e-16
3.546248024e-16
5.319844965e-16
1.061590932e-15
1.315433760e-15
1.013825761e-15
4.167839529e-16
5.763176088e-17
1.535079337e-18
1.423337558e-18
1.754121482e-18
2.537590688e-18
4.110056439e-18
7.107356799e-18
1.258069191e-17
2.209812299e-17
3.781053416e-17
6.252612762e-17
9.994438189e-17
1.554146899e-16
2.381979516e-16
3.676792888e-16
5.679318826e-16
1.088522117e-15
1.313351030e-15
9.914836782e-16
3.997561301e-16
5.413299266e-17
1.446845608e-18
1.800588051e-18
2.194463888e-18
3.113003503e-18
4.917089086e-18
8.274241701e-18
1.426446246e-17
2.447294218e-17
4.105453663e-17
6.681909862e-17
1.054942669e-16
1.625467432e-16
2.475911009e-16
3.807353919e-16
6.032253995e-16
1.113274670e-15
1.309951271e-15
9.698073927e-16
3.839872326e-16
5.103325030e-17
1.371686576e-18
2.243519471e-18
2.705902940e-18
3.769060012e-18
5.816468056e-18
9.544214030e-18
1.605730514e-17
2.695493529e-17
4.439469343e-17
7.118957496e-17
1.110998838e-16
1.697176609e-16
2.570252541e-16
3.937737276e-16
6.377142327e-16
1.135978766e-15
1.305408962e-15
9.487988130e-16
3.693529953e-16
4.827501291e-17
1.307339238e-18
2.756567234e-18
3.292461936e-18
4.508866362e-18
6.809849838e-18
1.091705103e-17
1.795708264e-17
2.954054446e-17
4.782702307e-17
7.563430963e-17
1.167597656e-16
1.769290271e-16
2.665051188e-16
4.067651507e-16
6.713285039e-16
1.156760136e-15
1.299873446e-15
9.284459185e-16
3.557402909e-16
4.580971519e-17
1.251929597e-18
3.343614942e-18
3.957578660e-18
5.334943060e-18
7.898318505e-18
1.239211985e-17
1.996151540e-17
3.222632910e-17
5.134773119e-17
8.015022229e-17
1.224726312e-16
1.841825928e-16
2.760358499e-16
4.196657376e-16
7.040228523e-16
1.175737732e-15
1.293472798e-15
9.087314397e-16
3.430455544e-16
4.359581084e-17
1.204126432e-18
4.007981978e-18
4.704116614e-18
6.249217091e-18
9.082484064e-18
1.396844564e-17
2.206816169e-17
3.500892408e-17
5.495338253e-17
8.473464876e-17
1.282377338e-16
1.914804955e-16
2.856220456e-16
4.324124637e-16
7.357652336e-16
1.193024243e-15
1.286321724e-15
8.896371240e-16
3.311789574e-16
4.159749725e-17
1.162369461e-18
4.752446217e-18
5.534382167e-18
7.253122223e-18
1.036249037e-17
1.564476417e-17
2.427453190e-17
3.788507564e-17
5.864069984e-17
8.938535025e-17
1.340546399e-16
1.988246691e-16
2.952681331e-16
4.449124402e-16
7.665337017e-16
1.208725212e-15
1.278517471e-15
8.711422829e-16
3.200645308e-16
3.978833490e-17
1.126012685e-18
5.579257694e-18
6.450174533e-18
8.347579627e-18
1.173814203e-17
1.741960306e-17
2.657808953e-17
4.085169828e-17
6.240674223e-17
9.410024437e-17
1.399230594e-16
2.062178224e-16
3.049779122e-16
4.570308510e-16
7.963143498e-16
1.222939054e-15
1.270145658e-15
8.532222228e-16
3.096309640e-16
3.814395644e-17
1.094225385e-18
6.490170339e-18
7.452806184e-18
9.533118065e-18
1.320886762e-17
1.929132457e-17
2.897628541e-17
4.390579489e-17
6.624877904e-17
9.887761127e-17
1.458430423e-16
2.136623487e-16
3.147548018e-16
4.685669011e-16
8.251007558e-16
1.235756885e-15
1.261277578e-15
8.358512819e-16
2.998140490e-16
3.664284185e-17
1.066281270e-18
7.486486721e-18
8.543160857e-18
1.080987154e-17
1.477388163e-17
2.125811379e-17
3.146655682e-17
4.704457561e-17
7.016430077e-17
1.037159741e-16
1.518148319e-16
2.211608916e-16
3.246015480e-16
4.792159979e-16
8.528907442e-16
1.247265484e-15
1.251978153e-15
8.190035900e-16
2.905560952e-16
3.526683141e-17
1.041614950e-18
8.569073395e-18
9.721740309e-18
1.217764478e-17
1.643211474e-17
2.331809531e-17
3.404644834e-17
5.026532791e-17
7.415100550e-17
1.086140630e-16
1.578387823e-16
2.287160838e-16
3.345199650e-16
4.885028687e-16
8.796876620e-16
1.257543549e-15
1.242301732e-15
8.026528846e-16
2.818063361e-16
3.400062204e-17
1.019752417e-18
9.738457518e-18
1.098869168e-17
1.363598345e-17
1.818235550e-17
2.546932852e-17
3.671345730e-17
5.356555714e-17
7.820692426e-17
1.135708500e-16
1.639156315e-16
2.363309793e-16
3.445106166e-16
4.956596659e-16
9.054974682e-16
1.266665951e-15
1.232296513e-15
7.867748134e-16
2.735192783e-16
3.283098750e-17
1.000296299e-18
1.099480991e-17
1.234387085e-17
1.518419152e-17
2.002322172e-17
2.770977095e-17
3.946522843e-17
5.694286480e-17
8.232996995e-17
1.185853968e-16
1.700460269e-16
2.440081918e-16
3.545727067e-16
4.994358984e-16
9.303288112e-16
1.274699284e-15
1.222004495e-15
7.713450941e-16
2.656540471e-16
3.174653742e-17
9.829052478e-19
1.233802769e-17
1.378688379e-17
1.682133166e-17
2.195320036e-17
3.003743243e-17
4.229947304e-17
6.039494808e-17
8.651862625e-17
1.236571729e-16
1.762309314e-16
2.517508058e-16
3.647036486e-16
4.987599934e-16
9.541933381e-16
1.281708930e-15
1.211462922e-15
7.563407088e-16
2.581743846e-16
3.073752024e-17
9.672924161e-19
1.376773428e-17
1.531709095e-17
1.854636224e-17
2.397072831e-17
3.245028681e-17
4.521388383e-17
6.391982076e-17
9.077120268e-17
1.287855654e-16
1.824715381e-16
2.595615586e-16
3.748979586e-16
5.187995051e-16
9.771027485e-16
1.287752240e-15
1.200702651e-15
7.417391922e-16
2.510474482e-16
2.979532472e-17
9.532048338e-19
1.528334284e-17
1.693365726e-17
2.035802556e-17
2.607413333e-17
3.494632339e-17
4.820635486e-17
6.751540707e-17
9.508648063e-17
1.339703129e-16
1.887688185e-16
2.674433968e-16
3.851476595e-16
5.451518518e-16
9.990726540e-16
1.292884939e-15
1.189752880e-15
7.275199825e-16
2.442441100e-16
2.891261451e-17
9.404291700e-19
1.688411484e-17
1.863563440e-17
2.225506139e-17
2.826170898e-17
3.752352201e-17
5.127481299e-17
7.117998265e-17
9.946308660e-17
1.392111828e-16
1.951240470e-16
2.753988636e-16
3.954401520e-16
5.714754309e-16
1.020117278e-15
1.297157543e-15
1.178637828e-15
7.136633907e-16
2.377379943e-16
2.808293014e-17
9.287788480e-19
1.856909837e-17
2.042188342e-17
2.423601138e-17
3.053178116e-17
4.018002188e-17
5.441730215e-17
7.491174743e-17
1.039000490e-16
1.445081030e-16
2.015389214e-16
2.834309297e-16
4.057579134e-16
5.976112567e-16
1.040252305e-15
1.300616294e-15
1.167379790e-15
7.001506846e-16
2.315053220e-16
2.730065125e-17
9.180876196e-19
2.033725114e-17
2.229122258e-17
2.629941418e-17
3.288255587e-17
4.291383745e-17
5.763196518e-17
7.870925361e-17
1.083963737e-16
1.498611429e-16
2.080145827e-16
2.915422433e-16
4.160759041e-16
6.235028193e-16
1.059494699e-15
1.303305633e-15
1.155996960e-15
6.869641918e-16
2.255248469e-16
2.656077896e-17
9.082164302e-19
2.218743085e-17
2.424233086e-17
2.844379014e-17
3.531234836e-17
4.572314901e-17
6.091702774e-17
8.257095828e-17
1.129512999e-16
1.552706237e-16
2.145528996e-16
2.997348613e-16
4.263604496e-16
6.491083188e-16
1.077861414e-15
1.305266497e-15
1.144507561e-15
6.740880506e-16
2.197774491e-16
2.585901963e-17
8.990408549e-19
2.411838553e-17
2.627386417e-17
3.066756494e-17
3.781942539e-17
4.860617856e-17
6.427076392e-17
8.649558661e-17
1.175641823e-16
1.607366618e-16
2.211553375e-16
3.080110246e-16
4.365645280e-16
6.743957141e-16
1.095368867e-15
1.306537105e-15
1.132925907e-15
6.615060692e-16
2.142457267e-16
2.519152756e-17
8.904497898e-19
2.612882942e-17
2.838444004e-17
3.296921317e-17
4.040215181e-17
5.156123485e-17
6.769165268e-17
9.048196615e-17
1.222344125e-16
1.662598971e-16
2.278236289e-16
3.163725167e-16
4.466227251e-16
6.993335820e-16
1.112034655e-15
1.307151777e-15
1.121265479e-15
6.492045006e-16
2.089140409e-16
2.455503394e-17
8.823512676e-19
2.821738821e-17
3.057258979e-17
3.534717343e-17
4.305878104e-17
5.458658305e-17
7.117816904e-17
9.452893053e-17
1.269615606e-16
1.718407249e-16
2.345597722e-16
3.248209833e-16
4.564457599e-16
7.238966399e-16
1.127875227e-15
1.307145711e-15
1.109538708e-15
6.371695736e-16
2.037681406e-16
2.394655105e-17
8.746551176e-19
3.038271772e-17
3.283687614e-17
3.779986425e-17
4.578775467e-17
5.768073736e-17
7.472896855e-17
9.863555781e-17
1.317453766e-16
1.774798274e-16
2.413652994e-16
3.333568743e-16
4.659062692e-16
7.480606031e-16
1.142908350e-15
1.306547758e-15
1.097756194e-15
6.253890419e-16
1.987952723e-16
2.336343786e-17
8.672894761e-19
3.262338916e-17
3.517586040e-17
4.032577745e-17
4.858752857e-17
6.084217936e-17
7.834273274e-17
1.028008935e-16
1.365855765e-16
1.831778937e-16
2.482423400e-16
3.419806838e-16
4.748234354e-16
7.718041575e-16
1.157152161e-15
1.305388545e-15
1.085927232e-15
6.138509883e-16
1.939838513e-16
2.280340698e-17
8.601917270e-19
3.493801654e-17
3.758807589e-17
4.292343194e-17
5.145653482e-17
6.406940111e-17
8.201824687e-17
1.070242382e-16
1.414820367e-16
1.889359232e-16
2.551927260e-16
3.506914572e-16
4.829323928e-16
7.951078937e-16
1.170621114e-15
1.303694113e-15
1.074060996e-15
6.025448137e-16
1.893234125e-16
2.226440389e-17
8.533031725e-19
3.732516800e-17
4.007208436e-17
4.559131868e-17
5.439337559e-17
6.736111053e-17
8.575437610e-17
1.113048944e-16
1.464347849e-16
1.947545328e-16
2.622184717e-16
3.594879123e-16
4.898377449e-16
8.179538036e-16
1.183334138e-15
1.301491904e-15
1.062165184e-15
5.914608239e-16
1.848043787e-16
2.174463384e-17
8.465735445e-19
3.978350972e-17
4.262647282e-17
4.832802088e-17
5.739658170e-17
7.071602176e-17
8.955017536e-17
1.156422986e-16
1.514439045e-16
2.006349966e-16
2.693213886e-16
3.683663864e-16
4.949363377e-16
8.403264471e-16
1.195306079e-15
1.298804097e-15
1.050247351e-15
5.805887630e-16
1.804182339e-16
2.124254039e-17
8.399569347e-19
4.231163155e-17
4.524987371e-17
5.113217953e-17
6.046480122e-17
7.413286532e-17
9.340468175e-17
1.200359307e-16
1.565094960e-16
2.065782914e-16
2.765032858e-16
3.773225595e-16
4.973247591e-16
8.622128020e-16
1.206554560e-15
1.295654959e-15
1.038313435e-15
5.699206763e-16
1.761570255e-16
2.075666199e-17
8.334146052e-19
4.490818275e-17
4.794092257e-17
5.400240387e-17
6.359683688e-17
7.761054487e-17
9.731701041e-17
1.244853863e-16
1.616318624e-16
2.125854468e-16
2.837663869e-16
3.863495141e-16
4.964845340e-16
8.835994324e-16
1.217094557e-15
1.292064668e-15
1.026369944e-15
5.594479651e-16
1.720134478e-16
2.028566627e-17
8.269100296e-19
4.757186149e-17
5.069824890e-17
5.693738717e-17
6.679138382e-17
8.114808403e-17
1.012864348e-16
1.289903738e-16
1.668113721e-16
2.186579670e-16
2.911122241e-16
3.954366165e-16
5.123410746e-16
9.044760203e-16
1.226943133e-15
1.288055282e-15
1.014422091e-15
5.491637994e-16
1.679812879e-16
1.982848135e-17
8.204116384e-19
5.030135939e-17
5.352067715e-17
5.993594510e-17
7.004732788e-17
8.474441004e-17
1.053122952e-16
1.335507029e-16
1.720484443e-16
2.247968596e-16
2.985424998e-16
4.045711988e-16
5.349063332e-16
9.248318411e-16
1.236114974e-15
1.283644248e-15
1.002475107e-15
5.390602893e-16
1.640542413e-16
1.938408232e-17
8.138975580e-19
5.309544393e-17
5.640689232e-17
6.299683089e-17
7.336355294e-17
8.839861489e-17
1.093939063e-16
1.381661872e-16
1.773436895e-16
2.310036915e-16
3.060587884e-16
4.137347205e-16
5.576430497e-16
9.446592853e-16
1.244626213e-15
1.278851266e-15
9.905336261e-16
5.291314536e-16
1.602269060e-16
1.895158312e-17
8.073406362e-19
5.595290476e-17
5.935576795e-17
6.611898154e-17
7.673904518e-17
9.210993855e-17
1.135308279e-16
1.428368377e-16
1.826976074e-16
2.372798953e-16
3.136625017e-16
4.229027941e-16
5.803684300e-16
9.639509564e-16
1.252490768e-15
1.273693023e-15
9.786024496e-16
5.193711790e-16
1.564947123e-16
1.853016368e-17
8.007255291e-19
5.887263280e-17
6.236609078e-17
6.930123737e-17
8.017282897e-17
9.587754042e-17
1.177225976e-16
1.475625581e-16
1.881107800e-16
2.436266043e-16
3.213545699e-16
4.320425025e-16
6.030265641e-16
9.827001800e-16
1.259724773e-15
1.268186317e-15
9.666847858e-16
5.097739378e-16
1.528526702e-16
1.811917009e-17
7.940371971e-19
6.185342282e-17
6.543685595e-17
7.254257144e-17
8.366403667e-17
9.970073503e-17
1.219688572e-16
1.523435642e-16
1.935841411e-16
2.500456345e-16
3.291360029e-16
4.411103232e-16
6.255817283e-16
1.000902743e-15
1.266341225e-15
1.262346629e-15
9.547854141e-16
5.003341520e-16
1.492968918e-16
1.771797536e-17
7.872619504e-19
6.489426933e-17
6.856696436e-17
7.584211461e-17
8.721179004e-17
1.035789909e-16
1.262693040e-16
1.571799679e-16
1.991183521e-16
2.565385082e-16
3.370068235e-16
4.500474396e-16
6.480027517e-16
1.018554474e-15
1.272356368e-15
1.256189288e-15
9.429075153e-16
4.910474271e-16
1.458236409e-16
1.732596310e-17
7.803881964e-19
6.799419506e-17
7.175546804e-17
7.919888971e-17
9.081531801e-17
1.075116743e-16
1.306236436e-16
1.620721341e-16
2.047144002e-16
2.631066609e-16
3.449668477e-16
4.587734107e-16
6.702617250e-16
1.035650421e-15
1.277783021e-15
1.249727966e-15
9.310546798e-16
4.819091595e-16
1.424293391e-16
1.694268179e-17
7.734030593e-19
7.115214531e-17
7.500149539e-17
8.261200873e-17
9.447396955e-17
1.114982603e-16
1.350318774e-16
1.670201679e-16
2.103732290e-16
2.697517032e-16
3.530153401e-16
4.671780781e-16
6.923341096e-16
1.052189727e-15
1.282635761e-15
1.242977549e-15
9.192297173e-16
4.729147572e-16
1.391109533e-16
1.656761649e-17
7.662988739e-19
7.436726461e-17
7.830401604e-17
8.608077478e-17
9.818707507e-17
1.155384493e-16
1.394937982e-16
1.720246258e-16
2.160958737e-16
2.764751635e-16
3.611503412e-16
4.751068787e-16
7.141957779e-16
1.068169278e-15
1.286927292e-15
1.235950461e-15
9.074360798e-16
4.640605889e-16
1.358651290e-16
1.620039304e-17
7.590673505e-19
7.763869218e-17
8.166239383e-17
8.960443114e-17
1.019540289e-16
1.196318754e-16
1.440094180e-16
1.770859577e-16
2.218833524e-16
2.832785080e-16
3.693691103e-16
4.823407120e-16
7.358238727e-16
1.083588818e-15
1.290671991e-15
1.228659290e-15
8.956765831e-16
4.553429645e-16
1.326893637e-16
1.584061243e-17
7.517040656e-19
8.096556483e-17
8.507571898e-17
9.318228875e-17
1.057743336e-16
1.237781771e-16
1.485788728e-16
1.822045787e-16
2.277368921e-16
2.901635055e-16
3.776674132e-16
4.885607790e-16
7.571982209e-16
1.098448183e-15
1.293883405e-15
1.221116387e-15
8.839538158e-16
4.467583478e-16
1.295810337e-16
1.548794258e-17
7.442054854e-19
8.434719909e-17
8.854336479e-17
9.681369663e-17
1.096475188e-16
1.279771634e-16
1.532022056e-16
1.873812878e-16
2.336575786e-16
2.971313277e-16
3.860393130e-16
4.932965695e-16
7.782982180e-16
1.112747254e-15
1.296573496e-15
1.213333158e-15
8.722705272e-16
4.383036587e-16
1.265381717e-16
1.514212205e-17
7.365735249e-19
8.778288650e-17
9.206462623e-17
1.004982163e-16
1.135732493e-16
1.322286634e-16
1.578795706e-16
1.926166395e-16
2.396466518e-16
3.041832140e-16
3.944763479e-16
4.958626099e-16
7.991051015e-16
1.126487291e-15
1.298755061e-15
1.205321102e-15
8.606292289e-16
4.299755680e-16
1.235581974e-16
1.480288957e-17
7.288068402e-19
9.127189042e-17
9.563897325e-17
1.042351851e-16
1.175510910e-16
1.365327298e-16
1.626113024e-16
1.979113034e-16
2.457054880e-16
3.113206073e-16
4.029676841e-16
4.955203041e-16
8.196020814e-16
1.139669131e-15
1.300441571e-15
1.197090370e-15
8.490319825e-16
4.217718043e-16
1.206394183e-16
1.447001824e-17
7.209065278e-19
9.481369226e-17
9.926576784e-17
1.080243043e-16
1.215808036e-16
1.408891435e-16
1.673976593e-16
2.032661033e-16
2.518354058e-16
3.185442909e-16
4.114988780e-16
5.036242455e-16
8.397721290e-16
1.152295512e-15
1.301644369e-15
1.188652434e-15
8.374818658e-16
4.136894253e-16
1.177801286e-16
1.414333245e-17
7.128766123e-19
9.840780277e-17