/*--------------------------------*- C++ -*----------------------------------*\
| =========                 |                                                 |
| \\      /  F ield         | OpenFOAM: The Open Source CFD Toolbox           |
|  \\    /   O peration     | Version:  5.x                                   |
|   \\  /    A nd           | Web:      www.OpenFOAM.org                      |
|    \\/     M anipulation  |                                                 |
\*---------------------------------------------------------------------------*/
FoamFile
{
    version     2.0;
    format      ascii;
    class       volScalarField;
    location    "3.5";
    object       CH4;
}
// * * * * * * * * * * * * * * * * * * * * * * * * * * * * * * * * * * * * * //

dimensions      [0 0 0 0 0 0 0];

internalField   nonuniform List<scalar>
51080
(
0.000000000e+00
0.000000000e+00
0.000000000e+00
0.000000000e+00
0.000000000e+00
0.000000000e+00
0.000000000e+00
0.000000000e+00
0.000000000e+00
0.000000000e+00
3.065839903e-02
3.489677465e-02
3.958121887e-02
4.579518066e-02
5.442707262e-02
6.596931391e-02
8.123373559e-02
1.015365953e-01
1.288225079e-01
1.596841269e-01
0.000000000e+00
0.000000000e+00
0.000000000e+00
0.000000000e+00
0.000000000e+00
0.000000000e+00
0.000000000e+00
0.000000000e+00
2.840635457e-02
3.177903633e-02
3.617846383e-02
4.106157571e-02
4.761075560e-02
5.681932788e-02
6.891228008e-02
8.470795366e-02
1.052853808e-01
1.311298806e-01
1.578196189e-01
1.592277578e-01
0.000000000e+00
0.000000000e+00
0.000000000e+00
0.000000000e+00
0.000000000e+00
0.000000000e+00
0.000000000e+00
2.938675812e-02
3.281772123e-02
3.734476120e-02
4.236158781e-02
4.901284968e-02
5.830105054e-02
7.029560671e-02
8.568835235e-02
1.053912339e-01
1.295757545e-01
1.546171701e-01
1.632603545e-01
1.369452069e-01
0.000000000e+00
0.000000000e+00
0.000000000e+00
0.000000000e+00
0.000000000e+00
2.779576931e-02
3.036275932e-02
3.370184316e-02
3.798530599e-02
4.337267238e-02
4.995207128e-02
5.914462205e-02
7.083437348e-02
8.551973836e-02
1.041790582e-01
1.267812167e-01
1.507741948e-01
1.640822189e-01
1.491561258e-01
1.102596796e-01
0.000000000e+00
0.000000000e+00
0.000000000e+00
0.000000000e+00
2.897964570e-02
3.148541655e-02
3.478346290e-02
3.906590641e-02
4.458146295e-02
5.067531710e-02
5.958075483e-02
7.079114562e-02
8.468397294e-02
1.022472221e-01
1.233901634e-01
1.464003091e-01
1.628851264e-01
1.570115696e-01
1.270573292e-01
8.451092635e-02
0.000000000e+00
2.758782689e-02
2.869333197e-02
3.038163272e-02
3.274495428e-02
3.591661599e-02
4.007493321e-02
4.545047122e-02
5.136175538e-02
5.974860519e-02
7.035621976e-02
8.340931758e-02
9.987021713e-02
1.196328601e-01
1.416100967e-01
1.600986326e-01
1.617720605e-01
1.401121890e-01
1.035602527e-01
6.138637326e-02
3.002203624e-02
3.073296016e-02
3.211586953e-02
3.422312488e-02
3.716360475e-02
4.109344449e-02
4.621886848e-02
5.184467224e-02
5.970655992e-02
6.963999412e-02
8.183290677e-02
9.718963377e-02
1.156182364e-01
1.364805489e-01
1.560225193e-01
1.638277762e-01
1.502810532e-01
1.198350450e-01
8.133594266e-02
4.140363009e-02
3.349315187e-02
3.436581564e-02
3.606057135e-02
3.863609876e-02
4.221653119e-02
4.697855635e-02
5.222047697e-02
5.947779529e-02
6.872381806e-02
8.005457900e-02
9.430790396e-02
1.114278082e-01
1.310923538e-01
1.509289638e-01
1.633645779e-01
1.577314202e-01
1.338203657e-01
9.947186917e-02
6.137683666e-02
2.465476540e-02
3.741960852e-02
3.846856256e-02
4.050197878e-02
4.358273826e-02
4.784691327e-02
5.257370140e-02
5.908575846e-02
6.755165519e-02
7.828705236e-02
9.135967817e-02
1.071578907e-01
1.255436218e-01
1.450831387e-01
1.606301318e-01
1.623235562e-01
1.455466327e-01
1.159715109e-01
8.045154245e-02
4.398050017e-02
1.100915909e-02
4.176613957e-02
4.299914082e-02
4.538688686e-02
4.899492561e-02
5.308105071e-02
5.878415967e-02
6.649081664e-02
7.630890362e-02
8.835592436e-02
1.028778817e-01
1.199366353e-01
1.387430244e-01
1.560192379e-01
1.638770344e-01
1.547382858e-01
1.307524677e-01
9.853047939e-02
6.332955982e-02
2.915928144e-02
3.830423731e-06
4.648815541e-02
4.788471584e-02
5.061452009e-02
5.388749434e-02
5.872705788e-02
6.560469781e-02
7.445028989e-02
8.538866950e-02
9.865825234e-02
1.143706720e-01
1.321469623e-01
1.500315302e-01
1.624218795e-01
1.609382460e-01
1.434927680e-01
1.154172031e-01
8.231121146e-02
4.825879508e-02
1.679962855e-02
7.492936133e-08
5.175551915e-02
5.300389939e-02
5.517374775e-02
5.909304026e-02
6.512538430e-02
7.288879882e-02
8.265748382e-02
9.463616911e-02
1.089699107e-01
1.255150347e-01
1.431783273e-01
1.583476293e-01
1.637073574e-01
1.536569353e-01
1.307537897e-01
1.006011070e-01
6.763477026e-02
3.520912376e-02
6.426721788e-03
7.423300415e-09
5.556037186e-02
5.705401087e-02
6.019465262e-02
6.512780230e-02
7.178305433e-02
8.033145960e-02
9.097993152e-02
1.038914517e-01
1.190619258e-01
1.359294785e-01
1.523422509e-01
1.629228762e-01
1.605761604e-01
1.439947047e-01
1.177949143e-01
8.680255990e-02
5.457746321e-02
2.406978984e-02
1.267698899e-06
1.206158269e-09
6.025161671e-02
6.220991403e-02
6.592085754e-02
7.133189157e-02
7.859022781e-02
8.786116702e-02
9.930673884e-02
1.129988323e-01
1.286904159e-01
1.451881015e-01
1.590096196e-01
1.636678312e-01
1.544135704e-01
1.333444974e-01
1.052938171e-01
7.422141258e-02
4.309618496e-02
1.467027125e-02
8.042121877e-08
2.591229905e-10
6.577696871e-02
6.786104882e-02
7.182536927e-02
7.766204914e-02
8.547562228e-02
9.539887693e-02
1.075315166e-01
1.218009519e-01
1.375942447e-01
1.528601157e-01
1.628073299e-01
1.612042912e-01
1.465277785e-01
1.225480581e-01
9.358327437e-02
6.290059592e-02
3.309277143e-02
6.569944165e-03
1.252687074e-08
6.669745352e-11
7.137596558e-02
7.359626557e-02
7.782476030e-02
8.405633757e-02
9.237316712e-02
1.028670351e-01
1.155491482e-01
1.301354108e-01
1.455033941e-01
1.585920733e-01
1.637756709e-01
1.564747634e-01
1.378584040e-01
1.120758814e-01
8.280319972e-02
5.280218726e-02
2.444475999e-02
4.015651809e-06
2.847133988e-09
1.945447549e-11
7.703138264e-02
7.938568977e-02
8.386707532e-02
9.046007714e-02
9.922208464e-02
1.101909217e-01
1.232543824e-01
1.378354270e-01
1.521620806e-01
1.621939074e-01
1.623390520e-01
1.503583810e-01
1.290016218e-01
1.021730002e-01
7.298694791e-02
4.384894979e-02
1.701090830e-02
2.560788869e-07
8.168868130e-10
6.215326614e-12
8.271740828e-02
8.519709684e-02
8.991074443e-02
9.682573624e-02
1.059665175e-01
1.172982374e-01
1.305412322e-01
1.447355949e-01
1.573694946e-01
1.637018438e-01
1.591042470e-01
1.435169177e-01
1.203113216e-01
9.295186473e-02
6.411013623e-02
3.594684703e-02
1.059245739e-02
4.851805794e-08
2.757579737e-10
2.129452771e-12
8.840642484e-02
9.099939793e-02
9.591933531e-02
1.031107353e-01
1.125541697e-01
1.241180872e-01
1.373037869e-01
1.506835982e-01
1.610152906e-01
1.633630258e-01
1.546622389e-01
1.363977526e-01
1.119858533e-01
8.444798388e-02
5.611866483e-02
2.899681316e-02
4.673241877e-03
1.331174492e-08
1.050870965e-10
7.723883508e-13
9.407140070e-02
9.676332064e-02
1.018595378e-01
1.092755918e-01
1.189347880e-01
1.305801979e-01
1.434391569e-01
1.555583200e-01
1.631056188e-01
1.615453238e-01
1.494903299e-01
1.292855685e-01
1.041269868e-01
7.665298624e-02
4.894471725e-02
2.289941222e-02
4.996624607e-06
4.555150270e-09
4.402454312e-11
2.944002771e-13
9.968636365e-02
1.024611404e-01
1.077000236e-01
1.152825691e-01
1.250590435e-01
1.366151214e-01
1.488527034e-01
1.592870680e-01
1.637631384e-01
1.586363100e-01
1.439365213e-01
1.223534005e-01
9.677762631e-02
6.953445118e-02
4.251598369e-02
1.755393455e-02
5.313590636e-07
1.818795962e-09
1.991505881e-11
1.174851326e-13
1.052262812e-01
1.080661484e-01
1.134104142e-01
1.210945594e-01
1.308778192e-01
1.421553219e-01
1.534656416e-01
1.618543746e-01
1.631929468e-01
1.549779075e-01
1.382399771e-01
1.157007505e-01
8.994516660e-02
6.304770052e-02
3.676067624e-02
1.284889291e-02
1.370429497e-07
8.157048716e-10
9.607134767e-12
4.904731555e-14
1.106665367e-01
1.135520169e-01
1.189606043e-01
1.266743502e-01
1.363421592e-01
1.471376215e-01
1.572251388e-01
1.633082587e-01
1.616351414e-01
1.508420789e-01
1.325586452e-01
1.093797959e-01
8.361624026e-02
5.714294916e-02
3.161024162e-02
8.630830722e-03
4.795245551e-08
4.009308232e-10
4.898559478e-12
2.145503581e-14
1.159824875e-01
1.188922995e-01
1.243201032e-01
1.319843244e-01
1.414038513e-01
1.515068211e-01
1.601066430e-01
1.637505796e-01
1.593245354e-01
1.464319500e-01
1.269932004e-01
1.034124635e-01
7.776581925e-02
5.176939740e-02
2.700040053e-02
4.578002221e-03
2.009679472e-08
2.123146846e-10
2.622916755e-12
9.868262913e-15
1.211489582e-01
1.240599095e-01
1.294576971e-01
1.369864043e-01
1.460167909e-01
1.552210033e-01
1.621194041e-01
1.633179023e-01
1.564669307e-01
1.418933250e-01
1.216050686e-01
9.780184018e-02
7.236289968e-02
4.687775972e-02
2.287130256e-02
3.986325714e-05
9.554724805e-09
1.196397169e-10
1.467631922e-12
4.793341396e-15
1.261399577e-01
1.290268993e-01
1.343413730e-01
1.416426310e-01
1.501390241e-01
1.582543902e-01
1.633060919e-01
1.621602271e-01
1.532305349e-01
1.373278948e-01
1.164291331e-01
9.253945555e-02
6.737405884e-02
4.242151958e-02
1.916681648e-02
1.936943236e-06
4.997507751e-09
7.107179452e-11
8.549096056e-13
2.467844247e-15
1.309284832e-01
1.337643215e-01
1.389385123e-01
1.459161391e-01
1.537356277e-01
1.605987991e-01
1.637367296e-01
1.604236170e-01
1.497466684e-01
1.328048404e-01
1.114825992e-01
8.760999232e-02
6.276563725e-02
3.835756734e-02
1.583302015e-02
5.689615731e-07
2.819100292e-09
4.418743918e-11
5.168460865e-13
1.348852637e-15
1.354865786e-01
1.382424729e-01
1.432164928e-01
1.497725711e-01
1.567821888e-01
1.622665548e-01
1.634992661e-01
1.582394473e-01
1.461148286e-01
1.283699224e-01
1.067710529e-01
8.299452561e-02
5.850505193e-02
3.464644399e-02
1.281546217e-02
2.316625504e-07
1.691413120e-09
2.858770341e-11
3.234638073e-13
7.818348214e-16
1.397855420e-01
1.424313173e-01
1.471436325e-01
1.531821752e-01
1.592642163e-01
1.632894524e-01
1.626895615e-01
1.557196246e-01
1.424087928e-01
1.240523261e-01
1.022924748e-01
7.867244083e-02
5.456149239e-02
3.125226577e-02
1.005377324e-02
1.114875204e-07
1.068334648e-09
1.915631261e-11
2.090950151e-13
4.790274918e-16
1.437965760e-01
1.463012930e-01
1.506904555e-01
1.561226960e-01
1.611803234e-01
1.637153210e-01
1.614028326e-01
1.529560210e-01
1.386823354e-01
1.198695235e-01
9.804016510e-02
7.462272667e-02
5.090627481e-02
2.814256815e-02
7.469625786e-03
5.985403546e-08
7.047932574e-10
1.324395321e-11
1.393299357e-13
3.088408556e-16
1.474914910e-01
1.498243558e-01
1.538316698e-01
1.585786331e-01
1.625428331e-01
1.636031644e-01
1.597277355e-01
1.500221413e-01
1.349740801e-01
1.158308384e-01
9.400452679e-02
7.082480273e-02
4.751302938e-02
2.528799348e-02
4.934245481e-03
3.480709057e-08
4.826337517e-10
9.416369650e-12
9.552920346e-14
2.084953629e-16
1.508439170e-01
1.529754180e-01
1.565480392e-01
1.605437512e-01
1.633768816e-01
1.630177871e-01
1.577431199e-01
1.469757618e-01
1.313112528e-01
1.119399977e-01
9.017440030e-02
6.725895793e-02
4.435770131e-02
2.266201346e-02
2.158520291e-03
2.153754927e-08
3.413520701e-10
6.865982071e-12
6.727770024e-14
1.466709673e-16
1.538308385e-01
1.557346872e-01
1.588258378e-01
1.620221921e-01
1.637182614e-01
1.620250536e-01
1.555168031e-01
1.438617021e-01
1.277126885e-01
1.081968589e-01
8.653790794e-02
6.390664894e-02
4.141842981e-02
2.024049356e-02
1.616466376e-05
1.401050192e-08
2.483322408e-10
5.121825694e-12
4.858913815e-14
1.070359514e-16
1.564342226e-01
1.580868116e-01
1.606592185e-01
1.630283057e-01
1.636103595e-01
1.606882368e-01
1.531057815e-01
1.407143836e-01
1.241909561e-01
1.045987562e-01
8.308300888e-02
6.075062506e-02
3.867547626e-02
1.800132520e-02
3.104207493e-06
9.499007938e-09
1.851938114e-10
3.900576918e-12
3.592989942e-14
8.070609708e-17
1.586404433e-01
1.600228997e-01
1.620509876e-01
1.635856519e-01
1.631009080e-01
1.590656267e-01
1.505571209e-01
1.375600513e-01
1.207540677e-01
1.011413823e-01
7.979792247e-02
5.777495389e-02
3.611099348e-02
1.592398902e-02
1.268658536e-06
6.668532905e-09
1.411667378e-10
3.026942945e-12
2.716268217e-14
6.265449537e-17
1.604423890e-01
1.615416014e-01
1.630125160e-01
1.637251433e-01
1.622389992e-01
1.572093174e-01
1.479092450e-01
1.344184738e-01
1.174067269e-01
9.781935458e-02
7.667124731e-02
5.496502283e-02
3.370892414e-02
1.398899650e-02
6.479979546e-07
4.822750742e-09
1.097207313e-10
2.389610079e-12
2.096343267e-14
4.992736711e-17
1.618401939e-01
1.626493720e-01
1.635629862e-01
1.634828301e-01
1.610726609e-01
1.551647917e-01
1.451932299e-01
1.313044483e-01
1.141511691e-01
9.462675577e-02
7.369220393e-02
5.230748975e-02
3.145478910e-02
1.217722633e-02
3.723200205e-07
3.578457926e-09
8.677178976e-11
1.916173876e-12
1.649245495e-14
4.071997679e-17
1.628413728e-01
1.633600777e-01
1.637280287e-01
1.628976235e-01
1.596471225e-01
1.529710965e-01
1.424340613e-01
1.282289102e-01
1.109879249e-01
9.155741733e-02
7.085066705e-02
4.979018231e-02
2.933560165e-02
1.046897046e-02
2.309374753e-07
2.715110099e-09
6.969654296e-11
1.558621517e-12
1.320842570e-14
3.390829507e-17
1.634603317e-01
1.636940597e-01
1.635379579e-01
1.620091862e-01
1.580037975e-01
1.506613537e-01
1.396517054e-01
1.251997990e-01
1.079162683e-01
8.860505616e-02
6.813717460e-02
4.740204414e-02
2.733960424e-02
8.842453079e-03
1.513980045e-07
2.100738177e-09
5.676721619e-11
1.284439314e-12
1.075462422e-14
2.876944758e-17
1.637174007e-01
1.636767498e-01
1.630259543e-01
1.608563230e-01
1.561797673e-01
1.482633810e-01
1.368620446e-01
1.222227737e-01
1.049346241e-01
8.576354938e-02
6.554295310e-02
4.513301166e-02
2.545620142e-02
7.271222973e-03
1.035830804e-07
1.653652087e-09
4.682051681e-11
1.071201522e-12
8.891556814e-15
2.482301197e-17
1.636375092e-01
1.633371028e-01
1.622263374e-01
1.594757543e-01
1.542077070e-01
1.458003818e-01
1.340776618e-01
1.193016755e-01
1.020408218e-01
8.302693399e-02
6.305990579e-02
4.297397833e-02
2.367580332e-02
5.719158503e-03
7.334184042e-08
1.321761629e-09
3.905676201e-11
9.031832001e-13
7.455791761e-15
2.174517891e-17
1.632486911e-01
1.627060149e-01
1.611731583e-01
1.579013630e-01
1.521160282e-01
1.432916440e-01
1.313084873e-01
1.164390273e-01
9.923226091e-02
8.038948925e-02
6.068053561e-02
4.091665607e-02
2.198968784e-02
4.129918229e-03
5.342168331e-08
1.070944162e-09
3.291552444e-11
7.691501750e-13
6.332939076e-15
1.930614176e-17
1.625806466e-01
1.618149266e-01
1.598990784e-01
1.561638454e-01
1.499292185e-01
1.407530968e-01
1.285622653e-01
1.136362964e-01
9.650619786e-02
7.784577022e-02
5.839797815e-02
3.895354569e-02
2.038991205e-02
2.403331891e-03
3.985311710e-08
8.783357049e-10
2.799839762e-11
6.610152123e-13
5.443100308e-15
1.734779503e-17
1.616634323e-01
1.606946821e-01
1.584346916e-01
1.542905454e-01
1.476682243e-01
1.381978734e-01
1.258450483e-01
1.108941529e-01
9.385967108e-02
7.539066281e-02
5.620591811e-02
3.707782698e-02
1.886916789e-02
3.924242770e-04
3.034540587e-08
7.282687361e-10
2.401740621e-11
5.728604303e-13
4.729480280e-15
1.576008670e-17
1.605264672e-01
1.593746722e-01
1.568080357e-01
1.523055964e-01
1.453508633e-01
1.356367788e-01
1.231614813e-01
1.082126674e-01
9.128970305e-02
7.301934499e-02
5.409853096e-02
3.528330917e-02
1.742067602e-02
1.158887007e-05
2.351958106e-08
6.097993276e-10
2.076098055e-11
5.002869187e-13
4.150512246e-15
1.445908869e-17
1.591977502e-01
1.578823290e-01
1.550444529e-01
1.502300541e-01
1.429922401e-01
1.330786374e-01
1.205150714e-01
1.055914548e-01
8.879331865e-02
7.072724832e-02
5.207048947e-02
3.356437333e-02
1.603810422e-02
4.264926657e-06
1.851451522e-08
5.151489266e-10
1.807178373e-11
4.399890779e-13
3.675637214e-15
1.338273029e-17
1.577033768e-01
1.562427522e-01
1.531665473e-01
1.480822045e-01
1.406051079e-01
1.305306695e-01
1.179084539e-01
1.030297922e-01
8.636760455e-02
6.851018140e-02
5.011689953e-02
3.191587518e-02
1.471535757e-02
2.219741656e-06
1.477557278e-08
4.386956581e-10
1.583134714e-11
3.894574500e-13
3.282112038e-15
1.248453524e-17
1.560672699e-01
1.544786441e-01
1.511943057e-01
1.458778212e-01
1.382002081e-01
1.279987591e-01
1.153435161e-01
1.005267182e-01
8.400971850e-02
6.636416472e-02
4.823327261e-02
3.033312636e-02
1.344655405e-02
1.330223887e-06
1.193616085e-08
3.763191822e-10
1.394954866e-11
3.467697481e-13
2.952906338e-15
1.172944702e-17
1.543110577e-01
1.526102853e-01
1.491452568e-01
1.436304605e-01
1.357865466e-01
1.254876536e-01
1.128215843e-01
9.808104958e-02
8.171687440e-02
6.428550026e-02
4.641546076e-02
2.881187243e-02
1.222578480e-02
8.633621515e-07
9.747833942e-09
3.249582244e-10
1.235700582e-11
3.104400038e-13
2.675086434e-15
1.109005490e-17
1.524541039e-01
1.506556381e-01
1.470346979e-01
1.413517471e-01
1.333716804e-01
1.230011599e-01
1.103434832e-01
9.569153985e-02
7.948643208e-02
6.227076309e-02
4.465966621e-02
2.734816669e-02
1.104695723e-02
5.907181843e-07
8.038815017e-09
2.823056356e-10
1.099949374e-11
2.792898686e-13
2.438452800e-15
1.054612881e-17
1.505135850e-01
1.486305233e-01
1.448759187e-01
1.390515906e-01
1.309619325e-01
1.205423451e-01
1.079096818e-01
9.335679564e-02
7.731585799e-02
6.031675277e-02
4.296238225e-02
2.593842045e-02
9.903438447e-03
4.199401575e-07
6.688072738e-09
2.466064387e-10
9.834678094e-12
2.523980231e-13
2.235123450e-15
1.007704098e-17
1.485046660e-01
1.465488004e-01
1.426803965e-01
1.367384607e-01
1.285625593e-01
1.181136046e-01
1.055203592e-01
9.107542067e-02
7.520270541e-02
5.842045164e-02
4.132041465e-02
2.457930884e-02
8.787764582e-03
3.074581364e-07
5.608883401e-09
2.165125852e-10
8.829271845e-12
2.290476963e-13
2.059341280e-15
9.673483952e-18
1.464406411e-01
1.444225269e-01
1.404580565e-01
1.344195246e-01
1.261779528e-01
1.157168272e-01
1.031754380e-01
8.884596492e-02
7.314468160e-02
5.657909709e-02
3.973076875e-02
2.326778132e-02
7.690920256e-03
2.304853321e-07
4.738088235e-09
1.909745880e-10
7.956471811e-12
2.086546456e-13
1.906320494e-15
9.324388058e-18
1.443331161e-01
1.422622171e-01
1.382174247e-01
1.321009053e-01
1.238116979e-01
1.133534299e-01
1.008746629e-01
8.666697855e-02
7.113958712e-02
5.479009406e-02
3.819070116e-02
2.200097798e-02
6.601389286e-03
1.761885355e-07
4.029082910e-09
1.691675991e-10
7.194765064e-12
1.907444945e-13
1.772165943e-15
9.020406710e-18
1.421922245e-01
1.400769491e-01
1.359658321e-01
1.297877436e-01
1.214667924e-01
1.110245138e-01
9.861760718e-02
8.453701146e-02
6.918532848e-02
5.305100980e-02
3.669769126e-02
2.077623454e-02
5.503448556e-03
1.369224476e-07
3.446965852e-09
1.504394570e-10
6.526671075e-12
1.749322998e-13
1.653775948e-15
8.754376417e-18
1.400267546e-01
1.378745829e-01
1.337095703e-01
1.274844183e-01
1.191456663e-01
1.087308039e-01
9.640374654e-02
8.245465825e-02
6.727992193e-02
5.135959495e-02
3.524938672e-02
1.959103687e-02
4.374133665e-03
1.079272936e-07
2.965385646e-09
1.342690816e-10
5.937944927e-12
1.609034090e-13
1.548663257e-15
8.520414225e-18
1.378443118e-01
1.356619135e-01
1.314539886e-01
1.251945801e-01
1.168502719e-01
1.064728170e-01
9.423245213e-02
8.041845720e-02
6.542147716e-02
4.971372338e-02
3.384358086e-02
1.844299968e-02
3.177776579e-03
8.613066078e-08
2.564152865e-09
1.202371873e-10
5.416910669e-12
1.483997750e-13
1.454794208e-15
8.313669860e-18
1.356514863e-01
1.334447687e-01
1.292036656e-01
1.229213119e-01
1.145822318e-01
1.042508635e-01
9.210303059e-02
7.842710132e-02
6.360824698e-02
4.811142963e-02
3.247828470e-02
1.732983322e-02
1.857198096e-03
6.948961687e-08
2.227676237e-09
1.080044535e-10
4.953870941e-12
1.372065814e-13
1.370502961e-15
8.130060960e-18
1.334539499e-01
1.312281540e-01
1.269625171e-01
1.206671894e-01
1.123427624e-01
1.020650264e-01
9.001475237e-02
7.647920105e-02
6.183850870e-02
4.655086066e-02
3.115157463e-02
1.624930650e-02
3.686833664e-04
5.661024451e-08
1.943795611e-09
9.729383378e-11
4.540821313e-12
1.271459623e-13
1.294425309e-15
7.966194239e-18
1.312566059e-01
1.290163739e-01
1.247338248e-01
1.184343262e-01
1.101328482e-01
9.991531701e-02
8.796679957e-02
7.457349253e-02
6.011067424e-02
4.503027524e-02
2.986171797e-02
1.519922993e-02
1.777131915e-05
4.652105855e-08
1.702947001e-09
8.787792088e-11
4.171030112e-12
1.180684406e-13
1.225413873e-15
7.819137376e-18
1.290636716e-01
1.268131291e-01
1.225204241e-01
1.162244970e-01
1.079532207e-01
9.780158210e-02
8.595839733e-02
7.270868182e-02
5.842322072e-02
4.354806516e-02
2.860705136e-02
1.417737973e-02
6.810746284e-06
3.853140427e-08
1.497530308e-09
7.956895390e-11
3.838867996e-12
1.098484233e-13
1.162522615e-15
7.686440700e-18
1.268787236e-01
1.246215245e-01
1.203246301e-01
1.140391348e-01
1.058044185e-01
9.572357307e-02
8.398869203e-02
7.088358173e-02
5.677471838e-02
4.210271502e-02
2.738604835e-02
1.318150335e-02
3.701173662e-06
3.214237181e-08
1.321480459e-09
7.221050537e-11
3.539559046e-12
1.023797674e-13
1.104952782e-15
7.565986129e-18
1.247048699e-01
1.224442579e-01
1.181484455e-01
1.118793705e-01
1.036867752e-01
9.368097740e-02
8.205686297e-02
6.909698890e-02
5.516378632e-02
4.069275710e-02
2.619724510e-02
1.220919179e-02
2.307930851e-06
2.698784910e-08
1.169914721e-09
6.567220273e-11
3.269061759e-12
9.557199282e-14
1.052034021e-15
7.455918620e-18
1.225447380e-01
1.202835622e-01
1.159935135e-01
1.097461661e-01
1.016005469e-01
9.167339770e-02
8.016205969e-02
6.734779187e-02
5.358915082e-02
3.931688622e-02
2.503926005e-02
1.125785963e-02
1.552072432e-06
2.279553820e-08
1.038868574e-09
5.984471859e-11
3.023920283e-12
8.934817311e-14
1.003192669e-15
7.354692710e-18
1.204005478e-01
1.181413663e-01
1.138611877e-01
1.076402274e-01
9.954581555e-02
8.970040143e-02
7.830346490e-02
6.563487178e-02
5.204956009e-02
3.797379950e-02
2.391081210e-02
1.032456490e-02
1.095835936e-06
1.936040727e-08
9.251112184e-10
5.463542240e-11
2.801192331e-12
8.364250914e-14
9.579466434e-16
7.260941999e-18
1.182742113e-01
1.160192508e-01
1.117525829e-01
1.055620912e-01
9.752255598e-02
8.776152067e-02
7.648022030e-02
6.395718547e-02
5.054386553e-02
3.666232748e-02
2.281066043e-02
9.405938531e-03
8.008734630e-07
1.652648869e-08
8.259908960e-10
4.996589109e-11
2.598327057e-12
7.839787257e-14
9.158786227e-16
7.173460864e-18
1.161672955e-01
1.139185463e-01
1.096685973e-01
1.035121415e-01
9.553067231e-02
8.585622424e-02
7.469151511e-02
6.231370988e-02
4.907094354e-02
3.538133167e-02
2.173762382e-02
8.497926925e-03
6.007659911e-07
1.417376749e-08
7.393253284e-10
4.576952052e-11
2.413134701e-12
7.356510611e-14
8.766404663e-16
7.091253689e-18
1.140811621e-01
1.118403647e-01
1.076099407e-01
1.014906926e-01
9.357001694e-02
8.398399096e-02
7.293654983e-02
6.070348228e-02
4.762974269e-02
3.412974153e-02
2.069054737e-02
7.595455266e-03
4.600331915e-07
1.220912796e-08
6.632940107e-10
4.198912309e-11
2.243716125e-12
6.910179807e-14
8.399246569e-16
7.013360306e-18
1.120168816e-01
1.097855967e-01
1.055771879e-01
9.949785633e-02
9.164033801e-02
8.214424139e-02
7.121452109e-02
5.912553789e-02
4.621927461e-02
3.290656024e-02
1.966834152e-02
6.691964465e-03
3.582423897e-07
1.055961607e-08
5.963864269e-10
3.857571376e-11
2.088409657e-12
6.497058244e-14
8.054657220e-16
6.939014841e-18
1.099753738e-01
1.077549617e-01
1.035707545e-01
9.753371132e-02
8.974135011e-02
8.033642144e-02
6.952466644e-02
5.757899773e-02
4.483856291e-02
3.171081392e-02
1.866990911e-02
5.778616826e-03
2.829342838e-07
9.167625950e-09
5.373337923e-10
3.548687886e-11
1.945775764e-12
6.113905079e-14
7.730378693e-16
6.867554796e-18
1.079573828e-01
1.057490267e-01
1.015909127e-01
9.559825253e-02
8.787276547e-02
7.855995609e-02
6.786620532e-02
5.606297048e-02
4.348669874e-02
3.054159585e-02
1.769417585e-02
4.842997251e-03
2.261650531e-07
7.987455269e-09
4.850700753e-10
3.268630446e-11
1.814547953e-12
5.757904862e-14
7.424415300e-16
6.798368942e-18
1.059634873e-01
1.037682364e-01
9.963788994e-02
9.369136508e-02
8.603417904e-02
7.681427074e-02
6.623839530e-02
5.457663872e-02
4.216284119e-02
2.939804406e-02
1.674005960e-02
3.866966305e-03
1.826881885e-07
6.982397565e-09
4.386926722e-10
3.014202395e-11
1.693617439e-12
5.426530617e-14
7.135058137e-16
6.730932571e-18
1.039941137e-01
1.018129154e-01
9.771179600e-02
9.181292939e-02
8.422524599e-02
7.509874644e-02
6.464050018e-02
5.311917542e-02
4.086613195e-02
2.827932359e-02
1.580647385e-02
2.823157481e-03
1.489347741e-07
6.122929387e-09
3.974370856e-10
2.782648922e-11
1.581993297e-12
5.117600024e-14
6.860819456e-16
6.664771440e-18
1.020496371e-01
9.988328409e-02
9.581263166e-02
8.996276586e-02
8.244554535e-02
7.341282025e-02
6.307183699e-02
5.168983598e-02
3.959579381e-02
2.718466284e-02
1.489226672e-02
1.670703728e-03
1.224160465e-07
5.385056923e-09
3.606510787e-10
2.571550555e-11
1.478817597e-12
4.829133119e-14
6.600366394e-16
6.599488767e-18
1.001302838e-01
9.797947227e-02
9.394038232e-02
8.814060122e-02
8.069464543e-02
7.175592418e-02
6.153170809e-02
5.028785877e-02
3.835108768e-02
2.611327300e-02
1.399623295e-02
3.909510941e-04
1.013622799e-07
4.749265587e-09
3.277780906e-10
2.378797859e-11
1.383313537e-12
4.559396288e-14
6.352502994e-16
6.534713746e-18
9.823620434e-02
9.610156754e-02
9.209496508e-02
8.634619544e-02
7.897210295e-02
7.012745054e-02
6.001943124e-02
4.891253696e-02
3.713126070e-02
2.506443789e-02
1.311713323e-02
2.267205690e-05
8.448974913e-08
4.199512348e-09
2.983393182e-10
2.202517510e-11
1.294803138e-12
4.306860191e-14
6.116234528e-16
6.470129946e-18
9.636750203e-02
9.424953367e-02
9.027622854e-02
8.457924851e-02
7.727747850e-02
6.852683794e-02
5.853436413e-02
4.756317078e-02
3.593565652e-02
2.403744616e-02
1.225350887e-02
8.659817368e-06
7.085423597e-08
3.722604447e-09
2.719233898e-10
2.041069425e-11
1.212670125e-12
4.070116067e-14
5.890655153e-16
6.405517251e-18
9.452417427e-02
9.242332973e-02
8.848400035e-02
8.283943539e-02
7.561032492e-02
6.695354947e-02
5.707587442e-02
4.623910314e-02
3.476358766e-02
2.303160796e-02
1.140380600e-02
4.760444219e-06
5.975012287e-08
3.307598826e-09
2.481742200e-10
1.893012497e-11
1.136369038e-12
3.847920604e-14
5.674966573e-16
6.340610805e-18
9.270619370e-02
9.062286584e-02
8.671805825e-02
8.112640871e-02
7.397015678e-02
6.540699288e-02
5.564334280e-02
4.493969204e-02
3.361441769e-02
2.204625440e-02
1.056619554e-02
3.009616403e-06
5.064435863e-08
2.945399738e-09
2.267846534e-10
1.757054180e-11
1.065413124e-12
3.639200522e-14
5.468447938e-16
6.275258291e-18
9.091346427e-02
8.884798253e-02
8.497816808e-02
7.943983165e-02
7.235653924e-02
6.388663919e-02
5.423618593e-02
4.366434096e-02
3.248757330e-02
2.108072357e-02
9.738542906e-03
2.051865773e-06
4.312969886e-08
2.628398815e-09
2.074865171e-10
1.632054581e-11
9.993600110e-13
3.442908553e-14
5.270499533e-16
6.209318826e-18
8.914588293e-02
8.709849957e-02
8.326406669e-02
7.777931318e-02
7.076900153e-02
6.239195537e-02
5.285380590e-02
4.241244529e-02
3.138243399e-02
2.013434830e-02
8.918254193e-03
1.467589355e-06
3.689144273e-08
2.350227659e-09
1.900468584e-10
1.516997408e-11
9.378121326e-13
3.258164563e-14
5.080562840e-16
6.142664116e-18
8.740325998e-02
8.537421155e-02
8.157544354e-02
7.614448255e-02
6.920705808e-02
6.092240446e-02
5.149565566e-02
4.118343733e-02
3.029844457e-02
1.920649372e-02
8.102104103e-03
1.085525213e-06
3.168466573e-08
2.105501619e-09
1.742616177e-10
1.410970006e-11
8.804148947e-13
3.084143691e-14
4.898103511e-16
6.075186993e-18
8.568540191e-02
8.367487851e-02
7.991201462e-02
7.453497396e-02
6.767028321e-02
5.947749248e-02
5.016118159e-02
3.997676826e-02
2.923506124e-02
1.829649251e-02
7.286013240e-03
8.233265110e-07
2.731691523e-08
1.889694192e-09
1.599530042e-10
1.313170074e-11
8.268420650e-13
2.920097033e-14
4.722698867e-16
6.006773632e-18
8.399212217e-02
8.200023694e-02
7.827346448e-02
7.295036966e-02
6.615821875e-02
5.805669485e-02
4.884987590e-02
3.879191373e-02
2.819175500e-02
1.740366693e-02
6.464617593e-03
6.368424553e-07
2.363557316e-08
1.698943178e-09
1.469641029e-10
1.222861207e-11
7.768018464e-13
2.765352619e-14
4.553913718e-16
5.937354026e-18
8.232316022e-02
8.035004251e-02
7.665945147e-02
7.139028277e-02
6.467039232e-02
5.665953596e-02
4.756120926e-02
3.762835612e-02
2.716802523e-02
1.652732353e-02
5.630676127e-03
5.005002247e-07
2.051918050e-08
1.529972392e-09
1.351572397e-10
1.139396899e-11
7.300253064e-13
2.619273179e-14
4.391394987e-16
5.866864023e-18
8.067825429e-02
7.872396303e-02
7.506962806e-02
6.985432773e-02
6.320636547e-02
5.528553480e-02
4.629468904e-02
3.648560490e-02
2.616337037e-02
1.566673292e-02
4.774129742e-03
3.985940926e-07
1.787013594e-08
1.379984874e-09
1.244107111e-10
1.062187353e-11
6.862726499e-13
2.481299094e-14
4.234789397e-16
5.795267008e-18
7.905714893e-02
7.712174403e-02
7.350366134e-02
6.834210611e-02
6.176570844e-02
5.393420844e-02
4.504984451e-02
3.536318641e-02
2.517728589e-02
1.482111926e-02
3.880535848e-03
3.210320276e-07
1.560953172e-08
1.246575963e-09
1.146170755e-10
9.907004163e-12
6.453186358e-13
2.350906833e-14
4.083797828e-16
5.722548418e-18
7.745953623e-02
7.554304064e-02
7.196120811e-02
6.685322445e-02
6.034798990e-02
5.260511589e-02
4.382619769e-02
3.426064209e-02
2.420931617e-02
1.398964795e-02
2.928704209e-03
2.610950790e-07
1.367339463e-08
1.127693464e-09
1.056812556e-10
9.244626840e-12
6.069636957e-13
2.227632439e-14
3.938158591e-16
5.648737275e-18
7.588512793e-02
7.398755880e-02
7.044189377e-02
6.538727601e-02
5.895277300e-02
5.129780812e-02
4.262329811e-02
3.317752674e-02
2.325899647e-02
1.317140972e-02
1.887647211e-03
2.141715640e-07
1.200942409e-08
1.021559597e-09
9.751887496e-11
8.630378822e-12
5.710216746e-13
2.111019630e-14
3.797616327e-16
5.573833984e-18
7.433364288e-02
7.245494101e-02
6.894539276e-02
6.394389372e-02
5.757962894e-02
5.001184307e-02
4.144072459e-02
3.211339531e-02
2.232584616e-02
1.236537549e-02
7.252643635e-04
1.770188227e-07
1.057470669e-08
9.266363181e-10
9.005447898e-11
8.060352696e-12
5.373238079e-13
2.000671995e-14
3.661946801e-16
5.497866347e-18
7.280474142e-02
7.094490913e-02
6.747132174e-02
6.252268815e-02
5.622818917e-02
4.874680659e-02
4.027804062e-02
3.106784265e-02
2.140941148e-02
1.157037173e-02
4.064055871e-05
1.473095954e-07
9.333779924e-09
8.416032915e-10
8.322144554e-11
7.531016482e-12
5.057148134e-13
1.896221477e-14
3.530953493e-16
5.420885613e-18
7.129810647e-02