/*--------------------------------*- C++ -*----------------------------------*\
| =========                 |                                                 |
| \\      /  F ield         | OpenFOAM: The Open Source CFD Toolbox           |
|  \\    /   O peration     | Version:  5.x                                   |
|   \\  /    A nd           | Web:      www.OpenFOAM.org                      |
|    \\/     M anipulation  |                                                 |
\*---------------------------------------------------------------------------*/
FoamFile
{
    version     2.0;
    format      ascii;
    class       volScalarField;
    location    "3.5";
    object       CO;
}
// * * * * * * * * * * * * * * * * * * * * * * * * * * * * * * * * * * * * * //

dimensions      [0 0 0 0 0 0 0];

internalField   nonuniform List<scalar>
51080
(
0.000000000e+00
0.000000000e+00
0.000000000e+00
0.000000000e+00
0.000000000e+00
0.000000000e+00
0.000000000e+00
0.000000000e+00
0.000000000e+00
0.000000000e+00
2.468641518e-02
3.113426745e-02
3.803322513e-02
4.691753583e-02
5.881433256e-02
7.397911655e-02
9.289345368e-02
1.164058750e-01
1.462870248e-01
1.859302878e-01
0.000000000e+00
0.000000000e+00
0.000000000e+00
0.000000000e+00
0.000000000e+00
0.000000000e+00
0.000000000e+00
0.000000000e+00
2.137834170e-02
2.662745264e-02
3.329620778e-02
4.046300661e-02
4.978467813e-02
6.239443411e-02
7.814527737e-02
9.752694520e-02
1.211545849e-01
1.494743712e-01
1.832963006e-01
2.226637654e-01
0.000000000e+00
0.000000000e+00
0.000000000e+00
0.000000000e+00
0.000000000e+00
0.000000000e+00
0.000000000e+00
2.307060255e-02
2.839311108e-02
3.523092025e-02
4.256822492e-02
5.199431014e-02
6.465289403e-02
8.020658511e-02
9.903942905e-02
1.216614809e-01
1.481984961e-01
1.786236054e-01
2.125552125e-01
2.488631716e-01
0.000000000e+00
0.000000000e+00
0.000000000e+00
0.000000000e+00
0.000000000e+00
2.066205474e-02
2.471688385e-02
2.987694802e-02
3.632742575e-02
4.420177624e-02
5.349759476e-02
6.599322164e-02
8.112734626e-02
9.910433824e-02
1.205982949e-01
1.454507266e-01
1.735162797e-01
2.043109923e-01
2.369384706e-01
2.700146933e-01
0.000000000e+00
0.000000000e+00
0.000000000e+00
0.000000000e+00
2.262436537e-02
2.656090648e-02
3.163296892e-02
3.805406579e-02
4.608196056e-02
5.465726719e-02
6.674459943e-02
8.126222437e-02
9.831603305e-02
1.186550308e-01
1.419862352e-01
1.681357753e-01
1.966607848e-01
2.268087182e-01
2.575214154e-01
2.874954040e-01
0.000000000e+00
2.045079043e-02
2.222285943e-02
2.489797764e-02
2.858409572e-02
3.343331167e-02
3.963902138e-02
4.743439777e-02
5.573280225e-02
6.710360187e-02
8.086230388e-02
9.695442369e-02
1.161470628e-01
1.380729972e-01
1.625677632e-01
1.892457893e-01
2.174767345e-01
2.463958568e-01
2.749598798e-01
3.020499596e-01
2.436774885e-02
2.548985843e-02
2.765469440e-02
3.091058734e-02
3.537412834e-02
4.120792695e-02
4.861389578e-02
5.649733484e-02
6.715493511e-02
8.007246070e-02
9.518632159e-02
1.132356674e-01
1.338307863e-01
1.568278342e-01
1.818992133e-01
2.085150437e-01
2.359521324e-01
2.633370074e-01
2.897235182e-01
3.141963394e-01
2.981872313e-02
3.116254374e-02
3.374861937e-02
3.762237417e-02
4.290347020e-02
4.975693482e-02
5.709044938e-02
6.693370986e-02
7.899860288e-02
9.313260523e-02
1.100361846e-01
1.293425164e-01
1.509356771e-01
1.745422973e-01
1.997169799e-01
2.258477951e-01
2.521880546e-01
2.779153472e-01
3.022112661e-01
3.243494066e-01
3.582596727e-02
3.740008620e-02
4.042143287e-02
4.492761325e-02
5.103354678e-02
5.763322823e-02
6.647400390e-02
7.756940291e-02
9.105342384e-02
1.067023485e-01
1.247055619e-01
1.449353196e-01
1.671544237e-01
1.909853644e-01
2.159063342e-01
2.412719401e-01
2.663571206e-01
2.904199269e-01
3.127732007e-01
3.328521274e-01
4.230129234e-02
4.410341204e-02
4.755625643e-02
5.268611157e-02
5.837292365e-02
6.611812865e-02
7.625813177e-02
8.867876659e-02
1.032468563e-01
1.199893882e-01
1.388838954e-01
1.597547388e-01
1.822899121e-01
2.060454960e-01
2.304613475e-01
2.548941952e-01
2.786670303e-01
3.011286388e-01
3.217136501e-01
3.303238995e-01
4.915016531e-02
5.113773373e-02
5.497940344e-02
5.951034385e-02
6.607634554e-02
7.515217979e-02
8.641673320e-02
9.977854390e-02
1.152681490e-01
1.328471381e-01
1.523889207e-01
1.736453997e-01
1.962446825e-01
2.197027280e-01
2.434487798e-01
2.668646819e-01
2.893343486e-01
3.102967184e-01
3.292931923e-01
2.919574102e-01
5.658426443e-02
5.831295278e-02
6.129086806e-02
6.659133404e-02
7.455942664e-02
8.449650664e-02
9.654045872e-02
1.106977643e-01
1.269319908e-01
1.451344844e-01
1.651033459e-01
1.865289654e-01
2.089958774e-01
2.319998765e-01
2.549784798e-01
2.773517372e-01
2.985685568e-01
3.181515867e-01
3.357300602e-01
2.602648784e-01
6.183023740e-02
6.386001162e-02
6.808045409e-02
7.458408972e-02
8.312865775e-02
9.374890645e-02
1.064803832e-01
1.212980330e-01
1.381122504e-01
1.567542003e-01
1.769634526e-01
1.983838163e-01
2.205718264e-01
2.430183841e-01
2.651813464e-01
2.865253158e-01
3.065628733e-01
3.248912774e-01
3.223459697e-01
2.332568753e-01
6.816635961e-02
7.076720026e-02
7.563059035e-02
8.257630364e-02
9.164004351e-02
1.028336184e-01
1.161391001e-01
1.314843832e-01
1.487289755e-01
1.676525510e-01
1.879488528e-01
2.092286297e-01
2.310334149e-01
2.528602733e-01
2.741946148e-01
2.945473104e-01
3.134903038e-01
3.306856118e-01
2.925453156e-01
2.097167072e-01
7.545226454e-02
7.815070982e-02
8.321452576e-02
9.051318218e-02
1.000130976e-01
1.116799201e-01
1.254474944e-01
1.411962069e-01
1.587385961e-01
1.778107906e-01
1.980712839e-01
2.191088758e-01
2.404601626e-01
2.616357975e-01
2.821524100e-01
3.015661088e-01
3.195027287e-01
3.356769424e-01
2.674540709e-01
1.888253066e-01
8.265239746e-02
8.545717286e-02
9.072558124e-02
9.832425619e-02
1.081851255e-01
1.202334500e-01
1.343594456e-01
1.503997247e-01
1.681252278e-01
1.872361156e-01
2.073645519e-01
2.280861983e-01
2.489400885e-01
2.694551737e-01
2.891804937e-01
3.077147709e-01
3.247315753e-01
3.302863173e-01
2.458813091e-01
1.700089960e-01
8.975065540e-02
9.265475152e-02
9.810642159e-02
1.059568132e-01
1.161102438e-01
1.284568627e-01
1.428481294e-01
1.590818153e-01
1.768932206e-01
1.959536352e-01
2.158762951e-01
2.362305914e-01
2.565631267e-01
2.764237859e-01
2.953935386e-01
3.131104184e-01
3.292895694e-01
3.062151083e-01
2.270483305e-01
1.528681952e-01
9.672268355e-02
9.971274652e-02
1.053190901e-01
1.133744436e-01
1.237577577e-01
1.363279193e-01
1.509022389e-01
1.672447874e-01
1.850611485e-01
2.039999731e-01
2.236617504e-01
2.436147709e-01
2.634166483e-01
2.826393381e-01
3.008943501e-01
3.178552268e-01
3.332725637e-01
2.857387465e-01
2.104089752e-01
1.371369121e-01
1.035454290e-01
1.066061747e-01
1.123373653e-01
1.205532957e-01
1.311094150e-01
1.438366424e-01
1.585223833e-01
1.749020629e-01
1.926568926e-01
2.114183660e-01
2.307792204e-01
2.503104778e-01
2.695829107e-01
2.881906159e-01
3.057737462e-01
3.220375362e-01
3.367585361e-01
2.680425100e-01
1.955637489e-01
1.226517692e-01
1.102002711e-01
1.133164109e-01
1.191436645e-01
1.274790733e-01
1.381566278e-01
1.509823873e-01
1.657179227e-01
1.820745415e-01
1.997139569e-01
2.182551636e-01
2.372870773e-01
2.563862328e-01
2.751377402e-01
2.931572816e-01
3.101114344e-01
3.257335279e-01
3.313446190e-01
2.525677509e-01
1.822136489e-01
1.093238272e-01
1.166734989e-01
1.198306077e-01
1.257272380e-01
1.341448175e-01
1.448981397e-01
1.577714736e-01
1.725042546e-01
1.887878489e-01
2.062687367e-01
2.245572782e-01
2.432416926e-01
2.619058831e-01
2.801498874e-01
2.976100240e-01
3.139768579e-01
3.290084501e-01
3.138394677e-01
2.389111924e-01
1.701319986e-01
9.711339439e-02
1.229559967e-01
1.261408497e-01
1.320826271e-01
1.405490798e-01
1.513380407e-01
1.642149805e-01
1.789006273e-01
1.950701824e-01
2.123585267e-01
2.303705950e-01
2.486962397e-01
2.669281481e-01
2.846811965e-01
3.016111302e-01
3.174303556e-01
3.319182825e-01
2.986500847e-01
2.267693362e-01
1.591456619e-01
8.600924670e-02
1.290425023e-01
1.322432060e-01
1.382085582e-01
1.466944864e-01
1.574842337e-01
1.703271627e-01
1.849285836e-01
2.009507730e-01
2.180201165e-01
2.357387635e-01
2.537000688e-01
2.715061862e-01
2.887866649e-01
3.052153111e-01
3.205241670e-01
3.345105384e-01
2.853311627e-01
2.159073164e-01
1.491213945e-01
7.601313281e-02
1.349309275e-01
1.381369579e-01
1.441068691e-01
1.525866815e-01
1.633471681e-01
1.761242842e-01
1.906106996e-01
2.064587346e-01
2.232889329e-01
2.407027758e-01
2.582983787e-01
2.756879487e-01
2.925151020e-01
3.084704086e-01
3.233035301e-01
3.368234570e-01
2.735525000e-01
2.061390506e-01
1.399552544e-01
6.712595869e-02
1.406216553e-01
1.438238032e-01
1.497817282e-01
1.582333103e-01
1.689389322e-01
1.816235194e-01
1.959697058e-01
2.116223522e-01
2.281984271e-01
2.453004007e-01
2.625322304e-01
2.795162608e-01
2.959095567e-01
3.114181812e-01
3.258075139e-01
3.373645543e-01
2.630633192e-01
1.973148645e-01
1.315642340e-01
5.933366547e-02
1.461170054e-01
1.493073125e-01
1.552389748e-01
1.636434156e-01
1.742725441e-01
1.868423933e-01
2.010278815e-01
2.164686133e-01
2.327798086e-01
2.495663339e-01
2.664386472e-01
2.830292265e-01
2.990079867e-01
3.140950850e-01
3.280699303e-01
3.251913910e-01
2.536676238e-01
1.893126428e-01
1.238804377e-01
5.259466843e-02
1.514207337e-01
1.545923580e-01
1.604855839e-01
1.688268773e-01
1.793613841e-01
1.917982632e-01
2.058066832e-01
2.210228856e-01
2.370619143e-01
2.535320743e-01
2.700508851e-01
2.862607683e-01
3.018436963e-01
3.165328339e-01
3.301200303e-01
3.143252768e-01
2.452086121e-01
1.820314684e-01
1.168460360e-01
4.683453254e-02
1.565376630e-01
1.596847832e-01
1.655292682e-01
1.737939722e-01
1.842188839e-01
1.965079532e-01
2.103264297e-01
2.253087744e-01
2.410711518e-01
2.572261915e-01
2.733986638e-01
2.892408393e-01
3.044460127e-01
3.187591308e-01
3.319831010e-01
3.046146199e-01
2.375585856e-01
1.753869704e-01
1.104103217e-01
4.195179792e-02
1.614733015e-01
1.645910411e-01
1.703781782e-01
1.785551487e-01
1.888581811e-01
2.009876027e-01
2.146062054e-01
2.293480908e-01
2.448316116e-01
2.606743556e-01
2.765085767e-01
2.919959919e-01
3.068405789e-01
3.207981427e-01
3.336810020e-01
2.958813032e-01
2.306120292e-01
1.693078983e-01
1.045274154e-01
3.783171657e-02
1.662337060e-01
1.693179934e-01
1.750406517e-01
1.831207653e-01
1.932920235e-01
2.052524648e-01
2.186638036e-01
2.331608930e-01
2.483651696e-01
2.638996500e-01
2.794041902e-01
2.945496835e-01
3.090499739e-01
3.226709072e-01
3.352324246e-01
2.879829677e-01
2.242807568e-01
1.637334055e-01
9.915490507e-02
3.435983224e-02
1.708251727e-01
1.738726924e-01
1.795250451e-01
1.875009330e-01
1.975325801e-01
2.093169112e-01
2.225156806e-01
2.367655100e-01
2.516916151e-01
2.669228484e-01
2.821066076e-01
2.969226229e-01
3.110940851e-01
3.243958863e-01
3.366526596e-01
2.808041708e-01
2.184904141e-01
1.586111263e-01
9.425332599e-02
3.143147096e-02
1.752542206e-01
1.782622388e-01
1.838396130e-01
1.917054154e-01
2.015913698e-01
2.131943266e-01
2.261770440e-01
2.401786742e-01
2.548288517e-01
2.697624809e-01
2.846345299e-01
2.991331499e-01
3.129902944e-01
3.259891520e-01
3.379454865e-01
2.742501544e-01
2.131776423e-01
1.538954733e-01
8.978525635e-02
2.895551167e-02
1.795273174e-01
1.824937158e-01
1.879924086e-01
1.957436035e-01
2.054793210e-01
2.168972001e-01
2.296618245e-01
2.434156210e-01
2.577929861e-01
2.724351895e-01
2.870045837e-01
3.011974513e-01
3.147539591e-01
3.274648224e-01
3.356501358e-01
2.682418573e-01
2.082881498e-01
1.495463892e-01
8.571531676e-02
2.685508501e-02
1.836509144e-01
1.865740464e-01
1.919912176e-01
1.996244081e-01
2.092066544e-01
2.204370904e-01
2.329828139e-01
2.464901397e-01
2.605985982e-01
2.749558681e-01
2.892316124e-01
3.031298753e-01
3.163985475e-01
3.288352784e-01
3.283436165e-01
2.627128553e-01
2.037750955e-01
1.455285529e-01
8.201002332e-02
2.506654028e-02
1.876313762e-01
1.905099735e-01
1.958435474e-01
2.033563104e-01
2.127829349e-01
2.238246705e-01
2.361517790e-01
2.494147892e-01
2.632587685e-01
2.773377830e-01
2.913287382e-01
3.049431397e-01
3.179359998e-01
3.301114015e-01
3.216188545e-01
2.576067770e-01
1.995978677e-01
1.418106882e-01
7.863811001e-02
2.353794975e-02
1.914748779e-01
1.943080360e-01
1.995565634e-01
2.069473229e-01
2.162170905e-01
2.270698583e-01
2.391794247e-01
2.522009959e-01
2.657852963e-01
2.795929345e-01
2.933077787e-01
3.066484963e-01
3.193768262e-01
3.313027204e-01
3.154191986e-01
2.528753692e-01
1.957210952e-01
1.383648281e-01
7.557017170e-02
2.222692592e-02
1.951873792e-01
1.979745298e-01
2.031370955e-01
2.104049582e-01
2.195174808e-01
2.301817163e-01
2.420755443e-01
2.548590831e-01
2.681888395e-01
2.817319661e-01
2.951791818e-01
3.082559240e-01
3.207303725e-01
3.324176783e-01
3.096806987e-01
2.484770094e-01
1.921136275e-01
1.351655560e-01
7.277794736e-02
2.109772065e-02
1.987746774e-01
2.015154846e-01
2.065916357e-01
2.137363362e-01
2.226918228e-01
2.331687194e-01
2.448491498e-01
2.573984199e-01
2.704790063e-01
2.837644730e-01
2.969522477e-01
3.097743046e-01
3.220048293e-01
3.334636751e-01
3.043485893e-01
2.443757580e-01
1.887482313e-01
1.321903508e-01
7.023585454e-02
2.012174255e-02
2.022423089e-01
2.049366685e-01
2.099263421e-01
2.169480885e-01
2.257473623e-01
2.360385374e-01
2.475083876e-01
2.598275629e-01
2.726644738e-01
2.856991128e-01
2.986354117e-01
3.112115703e-01
3.232075188e-01
3.344472171e-01
2.993761827e-01
2.405404044e-01
1.856009070e-01
1.294189201e-01
6.792027250e-02
1.927580675e-02
2.055955665e-01
2.082435828e-01
2.131470399e-01
2.200464580e-01
2.286907711e-01
2.387983704e-01
2.500608155e-01
2.621542118e-01
2.747530279e-01
2.875435721e-01
3.002360688e-01
3.125747796e-01
3.243449381e-01
3.353739576e-01
2.947236696e-01
2.369436247e-01
1.826503998e-01
1.268329295e-01
6.580946828e-02
1.854043703e-02
2.088395641e-01
2.114414511e-01
2.162592185e-01
2.230373241e-01
2.315282939e-01
2.414547925e-01
2.525132909e-01
2.643854769e-01
2.767518049e-01
2.893048511e-01
3.017609764e-01
3.138701997e-01
3.254228626e-01
3.362487017e-01
2.903567664e-01
2.335614846e-01
1.798778490e-01
1.244157828e-01
6.388362482e-02
1.789972931e-02
2.119791124e-01
2.145352480e-01
2.192681148e-01
2.259261585e-01
2.342657155e-01
2.440138784e-01
2.548720970e-01
2.665277391e-01
2.786672363e-01
2.909892198e-01
3.032161470e-01
3.151034990e-01
3.264464508e-01
3.370748784e-01
2.862456496e-01
2.303727473e-01
1.772662521e-01
1.221519764e-01
6.212341490e-02
1.733919883e-02
2.150188446e-01
2.175297036e-01
2.221785797e-01
2.287181107e-01
2.369084689e-01
2.464812477e-01
2.571430553e-01
2.685868563e-01
2.805050667e-01
2.926023735e-01
3.046069546e-01
3.162797168e-01
3.274203161e-01
3.378513505e-01
2.823646983e-01
2.273589227e-01
1.748006734e-01
1.200279214e-01
6.051215037e-02
1.684743197e-02
2.179631423e-01
2.204292871e-01
2.249953155e-01
2.314179966e-01
2.394615405e-01
2.488621108e-01
2.593314351e-01
2.705681804e-01
2.822706429e-01
2.941493951e-01
3.059383172e-01
3.174033706e-01
3.283485577e-01
3.384537392e-01
2.786913046e-01
2.245035455e-01
1.724678615e-01
1.180314445e-01
5.903546228e-02
1.641578866e-02
2.208161695e-01
2.232382491e-01
2.277226393e-01
2.340303554e-01
2.419296343e-01
2.511612305e-01
2.614421261e-01
2.724765996e-01
2.839687650e-01
2.956349717e-01
3.072145901e-01
3.184785370e-01
3.292348975e-01
3.346134203e-01
2.752057520e-01
2.217920152e-01
1.702558390e-01
1.161513473e-01
5.767968311e-02
1.603603895e-02
2.235819242e-01
2.259606006e-01
2.303646931e-01
2.365593976e-01
2.443170654e-01
2.533830862e-01
2.634796532e-01
2.743166056e-01
2.856038207e-01
2.970633120e-01
3.084397796e-01
3.195088797e-01
3.300825947e-01
3.301518132e-01
2.718907176e-01
2.192113865e-01
1.681538562e-01
1.143773951e-01
5.643243859e-02
1.570121366e-02
2.262641238e-01
2.286001663e-01
2.329253470e-01
2.390091337e-01
2.466279331e-01
2.555318223e-01
2.654481369e-01
2.760922993e-01
2.871798225e-01
2.984382375e-01
3.096174706e-01
3.204977044e-01
3.308946704e-01
3.259049551e-01
2.687306618e-01
2.167499544e-01
1.661521827e-01
1.127002673e-01
5.528257016e-02
1.540540519e-02
2.288663686e-01
2.311605439e-01
2.354083192e-01
2.413832836e-01
2.488660165e-01
2.576112400e-01
2.673514174e-01
2.778074257e-01
2.887003753e-01
2.997632399e-01
3.107509039e-01
3.214480155e-01
3.316737717e-01
3.218606981e-01
2.657120704e-01
2.143973923e-01
1.642422437e-01
1.111116463e-01
5.422028615e-02
1.514368671e-02
2.313920658e-01
2.336451564e-01
2.378169941e-01
2.436853643e-01
2.510348711e-01
2.596248948e-01
2.691930190e-01
2.794654944e-01
2.901689179e-01
3.010415237e-01
3.118430611e-01
3.223624849e-01
3.324223430e-01
3.180019011e-01
2.628227275e-01
2.121444350e-01
1.624161597e-01
1.096039475e-01
5.323675142e-02
1.491158808e-02
2.338444343e-01
2.360572456e-01
2.401547038e-01
2.459186485e-01
2.531378210e-01
2.615761325e-01
2.709762365e-01
2.810696879e-01
2.915884679e-01
3.022759404e-01
3.128966337e-01
3.232436076e-01
3.331425207e-01
3.143124338e-01
2.600517567e-01
2.099825712e-01
1.606665933e-01
1.081697417e-01
5.232347529e-02
1.470591998e-02
2.362264934e-01
2.383998898e-01
2.424244815e-01
2.480862740e-01
2.551779743e-01
2.634680183e-01
2.727040961e-01
2.826229752e-01
2.929618427e-01
3.034691779e-01
3.139141045e-01
3.240936025e-01
3.338363079e-01
3.107779522e-01
2.573894846e-01
2.079043231e-01
1.589871649e-01
1.068025699e-01
5.147262567e-02
1.452188766e-02
2.385411718e-01
2.406759811e-01
2.446293083e-01
2.501911254e-01
2.571582083e-01
2.653034349e-01
2.743794072e-01
2.841280441e-01
2.942916728e-01
3.046236794e-01
3.148976508e-01
3.249145086e-01
3.345054271e-01
3.073856909e-01
2.548273261e-01
2.059030384e-01
1.573723537e-01
1.054972219e-01
5.067892217e-02
1.435815892e-02
2.407912350e-01
2.428882918e-01
2.467718830e-01
2.522360052e-01
2.590812804e-01
2.670850889e-01
2.760048166e-01
2.855874378e-01
2.955803235e-01
3.057416613e-01
3.158494042e-01
3.257081528e-01
3.351514840e-01
3.041242213e-01
2.523574737e-01
2.039727051e-01
1.558168892e-01
1.042485243e-01
4.993676157e-02
1.421219659e-02
2.429792845e-01
2.450394309e-01
2.488548512e-01
2.542234402e-01
2.609497629e-01
2.688154767e-01
2.775827329e-01
2.870034957e-01
2.968300208e-01
3.068252036e-01
3.167711980e-01
3.264762232e-01
3.357758270e-01
3.009833798e-01
2.499729558e-01
2.021077024e-01
1.543160331e-01
1.030516556e-01
4.924074950e-02
1.408160956e-02
2.451078319e-01
2.471318656e-01
2.508806653e-01
2.561559347e-01
2.627660324e-01
2.704969402e-01
2.791154654e-01
2.883783786e-01
2.980428123e-01
3.078761880e-01
3.176647727e-01
3.272202723e-01
3.363795466e-01
2.979539223e-01
2.476673228e-01
2.003031117e-01
1.528654263e-01
1.019022015e-01
4.858615238e-02
1.396449848e-02
2.471791807e-01
2.491679586e-01
2.528516433e-01
2.580357545e-01
2.645323781e-01
2.721317210e-01
2.806051065e-01
2.897141168e-01
2.992205812e-01
3.088963394e-01
3.185316887e-01
3.279417236e-01
3.369633700e-01
2.950276876e-01
2.454349188e-01
1.985543588e-01
1.514610962e-01
1.007962057e-01
4.796884769e-02
1.385920088e-02
2.491956261e-01
2.511499385e-01
2.547700212e-01
2.598651064e-01
2.662509456e-01
2.737218316e-01
2.820536719e-01
2.910126235e-01
3.003650925e-01
3.098873210e-01
3.193734516e-01
3.286418604e-01
3.375268510e-01
2.921972269e-01
2.432705303e-01
1.968573042e-01
1.500995062e-01
9.973008236e-02
4.738510127e-02
1.376426863e-02
2.511592777e-01
2.530799295e-01
2.566379234e-01
2.616460542e-01
2.679237110e-01
2.752692710e-01
2.834630100e-01
2.922755682e-01
3.014779548e-01
3.108505829e-01
3.201913799e-01
3.293218949e-01
3.380640801e-01
2.894558802e-01
2.411693485e-01
1.952082179e-01
1.487773367e-01
9.870051344e-02
4.683156890e-02
1.367840680e-02
2.530721854e-01
2.549599666e-01
2.584572805e-01
2.633805217e-01
2.695525971e-01
2.767758653e-01
2.848348171e-01
2.935046815e-01
3.025607331e-01
3.117875262e-01
3.209867421e-01
3.299829398e-01
3.384490019e-01
2.867975584e-01
2.391271581e-01
1.936037012e-01
1.474916559e-01
9.770453457e-02
4.630530412e-02
1.360049270e-02
2.549362495e-01
2.567919428e-01
2.602300374e-01
2.650703936e-01
2.711393998e-01
2.782432814e-01
2.861707967e-01
2.947014155e-01
3.036147931e-01
3.126994813e-01
3.217606833e-01
3.306259697e-01
3.358017545e-01
2.842167468e-01
2.371400251e-01
1.920406006e-01
1.462396992e-01
9.673939305e-02
4.580357128e-02
1.352949845e-02
2.567533113e-01
2.585776694e-01
2.619579235e-01
2.667173933e-01
2.726858049e-01
2.796731865e-01
2.874724192e-01
2.958672792e-01
3.046414913e-01
3.135875867e-01
3.225142777e-01
3.312519552e-01
3.324738662e-01
2.817084663e-01
2.352043336e-01
1.905161281e-01
1.450190186e-01
9.580261376e-02
4.532399178e-02
1.346453509e-02
2.585251596e-01
2.603189128e-01
2.636427207e-01
2.683231666e-01
2.741933754e-01
2.810670791e-01
2.887411837e-01
2.970035416e-01
3.056420493e-01
3.144529592e-01
3.232484804e-01
3.318617387e-01
3.292331491e-01
2.792681460e-01
2.333168288e-01
1.890276206e-01
1.438273262e-01
9.489191900e-02
4.486438943e-02
1.340480195e-02
2.602534116e-01
2.620172837e-01
2.652859786e-01
2.698893389e-01
2.756637090e-01
2.824264263e-01
2.899783780e-01
2.981115031e-01
3.066175965e-01
3.152967085e-01
3.239642660e-01
3.324561290e-01
3.260865943e-01
2.768916276e-01
2.314745193e-01
1.875727135e-01
1.426625395e-01
9.400520965e-02
4.442282107e-02
1.334956520e-02
2.619396702e-01
2.636743906e-01
2.668892480e-01
2.714173410e-01
2.770981680e-01
2.837525901e-01
2.911853627e-01
2.991923332e-01
3.075692345e-01
3.161197262e-01
3.246625045e-01
3.330358399e-01
3.230303518e-01
2.745751202e-01
2.296746266e-01
1.861492196e-01
1.415227250e-01
9.314059304e-02
4.399748949e-02
1.329820029e-02
2.635854631e-01
2.652916956e-01
2.684540422e-01
2.729086417e-01
2.784981309e-01
2.850468613e-01
2.923632812e-01
3.002471492e-01
3.084980069e-01
3.169229848e-01
3.253439441e-01
3.336015836e-01
3.200594748e-01
2.723150736e-01
2.279146155e-01
1.847551371e-01
1.404061776e-01
9.229634944e-02
4.358682659e-02
1.325013473e-02
2.651922210e-01
2.668706439e-01
2.699817017e-01
2.743645594e-01
2.798648883e-01
2.863104278e-01
2.935132901e-01
3.012770250e-01
3.094047944e-01
3.177072950e-01
3.260093504e-01
3.341539990e-01
3.171690153e-01
2.701082843e-01
2.261921412e-01
1.833885771e-01
1.393112224e-01
9.147086418e-02
4.318937349e-02
1.320484628e-02
2.667613242e-01
2.684126157e-01
2.714735931e-01
2.757864230e-01
2.811996924e-01
2.875444801e-01
2.946364894e-01
3.022829089e-01
3.102905685e-01
3.184734489e-01
3.266594300e-01
3.346935955e-01
3.143544079e-01
2.679517883e-01
2.245051101e-01
1.820478674e-01
1.382364140e-01
9.066267661e-02
4.280389022e-02
1.316189719e-02
2.682940754e-01
2.699188697e-01
2.729309724e-01
2.771753860e-01
2.825036441e-01
2.887500968e-01
2.957338617e-01
3.032657525e-01
3.111561222e-01
3.192222503e-01
3.272948670e-01
3.352209698e-01
3.116113452e-01
2.658428505e-01
2.228515039e-01
1.807314302e-01
1.371803751e-01
8.987044961e-02
4.242919068e-02
1.312084662e-02
2.697917507e-01
2.713906578e-01
2.743550197e-01
2.785326400e-01
2.837779248e-01
2.899283299e-01
2.968063984e-01
3.042264518e-01
3.120022723e-01
3.199543298e-01
3.279162130e-01
3.357365032e-01
3.089358296e-01
2.637789545e-01
2.212294609e-01
1.794378179e-01
1.361418378e-01
8.909294699e-02
4.206420212e-02
1.308133987e-02
2.712555180e-01
2.728291801e-01
2.757469051e-01
2.798593275e-01
2.850235697e-01
2.910801581e-01
2.978549864e-01
3.051658326e-01
3.128297409e-01
3.206704035e-01
3.285240994e-01
3.362405910e-01
3.063242783e-01
2.617577357e-01
2.196373115e-01
1.781656314e-01
1.351196431e-01
8.832904534e-02
4.170798904e-02
1.304306337e-02
2.726865574e-01
2.742355404e-01
2.771077379e-01
2.811564619e-01
2.862415447e-01
2.922065201e-01
2.988805215e-01
3.060846559e-01
3.136392930e-01
3.213710688e-01
3.291190040e-01
3.367333840e-01
3.037732634e-01
2.597770537e-01
2.180734531e-01
1.769137131e-01
1.341127285e-01
8.757773702e-02
4.135968367e-02
1.300571784e-02
2.740859263e-01
2.756108262e-01
2.784385478e-01
2.824250866e-01
2.874328275e-01
2.933082987e-01
2.998838119e-01
3.069837088e-01
3.144315199e-01
3.220569492e-01
3.297015136e-01
3.372147118e-01
3.012796652e-01
2.578349091e-01
2.165364543e-01
1.756808381e-01
1.331201384e-01
8.683805506e-02
4.101852349e-02
1.296904272e-02
2.754547205e-01
2.769560671e-01
2.797403566e-01
2.836661240e-01
2.885983528e-01
2.943863678e-01
3.008656453e-01
3.078636819e-01
3.152071205e-01
3.227285567e-01
3.302720286e-01
3.376832262e-01
2.988406280e-01
2.559294134e-01
2.150249018e-01
1.744659801e-01
1.321408771e-01
8.610916761e-02
4.068384050e-02
1.293279599e-02
2.767939230e-01
2.782722766e-01
2.810141305e-01
2.848804997e-01
2.897389295e-01
2.954415317e-01
3.018267647e-01
3.087252412e-01
3.159666667e-01
3.233864128e-01
3.308310567e-01
3.381317981e-01
2.964534043e-01
2.540587853e-01
2.135375611e-01
1.732681131e-01
1.311741740e-01
8.539025220e-02
4.035498348e-02
1.289677027e-02
2.781044841e-01
2.795603773e-01
2.822607597e-01
2.860691310e-01
2.908554143e-01
2.964745514e-01
3.027678701e-01
3.095690295e-01
3.167107061e-01
3.240310745e-01
3.313790280e-01
3.384500050e-01
2.941155583e-01
2.522214353e-01
2.120732324e-01
1.720863655e-01
1.302191930e-01
8.468056357e-02
4.003133766e-02
1.286076617e-02
2.793873288e-01
2.808212424e-01
2.834811143e-01
2.872328138e-01
2.919486460e-01
2.974861613e-01
3.036896306e-01
3.103956654e-01
3.174398361e-01
3.246629658e-01
3.319162722e-01
3.363356671e-01
2.918247308e-01
2.504158296e-01
2.106308461e-01
1.709198226e-01
1.292752731e-01
8.397948418e-02
3.971242534e-02
1.282460813e-02
2.806433365e-01
2.820558110e-01
2.846760813e-01
2.883723783e-01
2.930193248e-01
2.984770839e-01
3.045927175e-01
3.112057164e-01
3.181545073e-01
3.252825343e-01
3.324432319e-01
3.334637556e-01
2.895788012e-01
2.486405607e-01
2.092093199e-01
1.697676892e-01
1.283416720e-01
8.328633325e-02
3.939777024e-02
1.278817099e-02
2.818733442e-01
2.832648438e-01
2.858464214e-01
2.894885767e-01
2.940681809e-01
2.994479622e-01
3.054777151e-01
3.119997720e-01
3.188552509e-01
3.258902068e-01
3.329602386e-01
3.306359873e-01
2.873757262e-01
2.468943110e-01
2.078077099e-01
1.686292602e-01
1.274177938e-01
8.260054194e-02
3.908695779e-02
1.275129796e-02
2.830781646e-01
2.844492062e-01
2.869929562e-01
2.905821442e-01
2.950959321e-01
3.003994525e-01
3.063452347e-01
3.127783122e-01
3.195425267e-01
3.264864049e-01
3.334676261e-01
3.278671920e-01
2.852135952e-01
2.451757988e-01
2.064251318e-01
1.675038227e-01
1.265030728e-01
8.192167988e-02
3.877959327e-02
1.271389491e-02
2.842586140e-01
2.856095812e-01
2.881163687e-01
2.916537978e-01
2.961032176e-01
3.013321721e-01
3.071957968e-01
3.135418250e-01
3.202167260e-01
3.270714803e-01
3.339656782e-01
3.251573077e-01
2.830906660e-01
2.434838705e-01
2.050607171e-01
1.663907013e-01
1.255969636e-01
8.124916898e-02
3.847537945e-02
1.267586830e-02
2.854153672e-01
2.867467684e-01
2.892173675e-01
2.927042160e-01
2.970906625e-01
3.022467091e-01
3.080299663e-01
3.142908414e-01
3.208783227e-01
3.276458346e-01
3.344547188e-01
3.225043913e-01
2.810052610e-01
2.418174228e-01
2.037136709e-01
1.652893273e-01
1.246989398e-01
8.058263246e-02
3.817401756e-02
1.263712988e-02
2.865491765e-01
2.878614244e-01
2.902966829e-01
2.937340159e-01
2.980589116e-01
3.031436141e-01
3.088482386e-01
3.150257649e-01
3.215277178e-01
3.282097737e-01
3.349350199e-01
3.199061647e-01
2.789558780e-01
2.401754037e-01
2.023832288e-01
1.641990825e-01
1.238085824e-01
7.992167468e-02
3.787519224e-02
1.259760126e-02
2.876607543e-01
2.889542451e-01
2.913549366e-01
2.947438413e-01
2.990085250e-01
3.040234051e-01
3.096511371e-01
3.157470648e-01
3.221652666e-01
3.287636321e-01
3.354067915e-01
3.173603372e-01
2.769410271e-01
2.385568942e-01
2.010687045e-01
1.631194955e-01
1.229254395e-01
7.926591298e-02
3.757869967e-02
1.255719520e-02
2.887507142e-01
2.900259170e-01
2.923927288e-01
2.957343006e-01
2.999400333e-01
3.048866528e-01
3.104390636e-01
3.164551584e-01
3.227913410e-01
3.293077511e-01
3.358702462e-01
3.148646602e-01
2.749593202e-01
2.369609194e-01
1.997694523e-01
1.620499927e-01
1.220490991e-01
7.861504175e-02
3.728426961e-02
1.251585142e-02
2.898197167e-01
2.910769667e-01
2.934107160e-01
2.967059508e-01
3.008540230e-01
3.057337995e-01
3.112125124e-01
3.171504393e-01
3.234063018e-01
3.298423979e-01
3.363254597e-01
3.124170422e-01
2.730094680e-01
2.353865925e-01
1.984848336e-01
1.609901622e-01
1.211791863e-01
7.796867258e-02
3.699172645e-02
1.247350573e-02
2.908683707e-01
2.921080895e-01
2.944094502e-01
2.976593347e-01
3.017509995e-01
3.065653317e-01
3.119719068e-01
3.178332727e-01
3.240104563e-01
3.303678740e-01
3.367724725e-01
3.100154396e-01
2.710902970e-01
2.338331613e-01
1.972142456e-01
1.599395440e-01
1.203153716e-01
7.732655752e-02
3.670085939e-02
1.243011338e-02
2.918972328e-01
2.931198030e-01
2.953894838e-01
2.985949964e-01
3.026314272e-01
3.073817279e-01
3.127176259e-01
3.185040545e-01
3.246041701e-01
3.308844540e-01
3.372109796e-01
3.076579500e-01
2.692005685e-01
2.322997842e-01
1.959571374e-01
1.588976930e-01
1.194572904e-01
7.668841171e-02
3.641150368e-02
1.238563513e-02
2.929069029e-01
2.941126810e-01
2.963513384e-01
2.995134310e-01
3.034957936e-01
3.081834025e-01
3.134501269e-01
3.191631072e-01
3.251877173e-01
3.313924043e-01
3.376398232e-01
3.053428431e-01
2.673392334e-01
2.307857836e-01
1.947129827e-01
1.578642619e-01
1.186046642e-01
7.605406446e-02
3.612354006e-02
1.234006163e-02
2.938979246e-01
2.950872495e-01
2.972955793e-01
3.004151477e-01
3.043445412e-01
3.089707574e-01
3.141697445e-01
3.198107627e-01
3.257613729e-01
3.318919326e-01
3.380543067e-01
3.030684138e-01
2.655052808e-01
2.292904325e-01
1.934813054e-01
1.568388477e-01
1.177571769e-01
7.542320562e-02
3.583683853e-02
1.229336359e-02
2.948707802e-01
2.960440348e-01
2.982226327e-01
3.013005854e-01
3.051781665e-01
3.097442255e-01
3.148768438e-01
3.204473621e-01
3.263254640e-01
3.323833036e-01
3.384148528e-01
3.008331013e-01
2.636977387e-01
2.278130212e-01
1.922615660e-01
1.558210956e-01
1.169146002e-01
7.479568921e-02
3.555129363e-02
1.224552580e-02
2.958260004e-01
2.969835153e-01
2.991330329e-01
3.021702136e-01
3.059970395e-01
3.105041750e-01
3.155717712e-01
3.210732257e-01
3.268802217e-01
3.328667508e-01
3.372982397e-01
2.986354191e-01
2.619156258e-01
2.263530027e-01
1.910533873e-01
1.548107292e-01
1.160766680e-01
7.417136374e-02
3.526683639e-02
1.219654948e-02
2.967641029e-01