/*--------------------------------*- C++ -*----------------------------------*\
| =========                 |                                                 |
| \\      /  F ield         | OpenFOAM: The Open Source CFD Toolbox           |
|  \\    /   O peration     | Version:  5.x                                   |
|   \\  /    A nd           | Web:      www.OpenFOAM.org                      |
|    \\/     M anipulation  |                                                 |
\*---------------------------------------------------------------------------*/
FoamFile
{
    version     2.0;
    format      ascii;
    class       volScalarField;
    location    "3.5";
    object       CO2;
}
// * * * * * * * * * * * * * * * * * * * * * * * * * * * * * * * * * * * * * //

dimensions      [0 0 0 0 0 0 0];

internalField   nonuniform List<scalar>
51080
(
0.000000000e+00
0.000000000e+00
0.000000000e+00
0.000000000e+00
0.000000000e+00
0.000000000e+00
0.000000000e+00
0.000000000e+00
0.000000000e+00
0.000000000e+00
4.049676033e-09
6.560300927e-09
9.905789399e-09
1.517487603e-08
2.379375171e-08
3.705386557e-08
5.659203093e-08
8.486701505e-08
1.278828731e-07
2.092345928e-07
0.000000000e+00
0.000000000e+00
0.000000000e+00
0.000000000e+00
0.000000000e+00
0.000000000e+00
0.000000000e+00
0.000000000e+00
3.008668552e-09
4.758065191e-09
7.568262866e-09
1.129574007e-08
1.718552608e-08
2.686410234e-08
4.134667758e-08
6.222090891e-08
9.168035760e-08
1.338515033e-07
2.032030064e-07
3.361373017e-07
0.000000000e+00
0.000000000e+00
0.000000000e+00
0.000000000e+00
0.000000000e+00
0.000000000e+00
0.000000000e+00
3.536403220e-09
5.454059716e-09
8.532432336e-09
1.257372698e-08
1.882313603e-08
2.891450640e-08
4.361476694e-08
6.426780608e-08
9.275901446e-08
1.322229342e-07
1.922073309e-07
2.962235103e-07
4.650790394e-07
0.000000000e+00
0.000000000e+00
0.000000000e+00
0.000000000e+00
0.000000000e+00
2.812713598e-09
4.092118395e-09
6.077147522e-09
9.111094667e-09
1.361471176e-08
1.998842220e-08
3.019045502e-08
4.471304201e-08
6.456761908e-08
9.162570375e-08
1.280981552e-07
1.808397770e-07
2.668178389e-07
4.034441998e-07
5.995532355e-07
0.000000000e+00
0.000000000e+00
0.000000000e+00
0.000000000e+00
3.405398965e-09
4.763170111e-09
6.855474256e-09
1.004627377e-08
1.485106085e-08
2.091315957e-08
3.094223726e-08
4.497677434e-08
6.381774856e-08
8.925836138e-08
1.228667503e-07
1.696145491e-07
2.421238049e-07
3.562598929e-07
5.180804774e-07
7.434794762e-07
0.000000000e+00
2.758039938e-09
3.282832296e-09
4.165222239e-09
5.558353409e-09
7.700593634e-09
1.094246638e-08
1.577496238e-08
2.178272360e-08
3.133168791e-08
4.466274854e-08
6.236523559e-08
8.612617196e-08
1.170440056e-07
1.587402438e-07
2.205527824e-07
3.168088919e-07
4.540941937e-07
6.390338426e-07
9.053418353e-07
3.984044916e-09
4.377910770e-09
5.191661606e-09
6.548379871e-09
8.664067567e-09
1.186314887e-08
1.660010079e-08
2.241459477e-08
3.143127741e-08
4.392734000e-08
6.042573062e-08
8.248009566e-08
1.108661153e-07
1.482212605e-07
2.013433899e-07
2.825622207e-07
4.001318133e-07
5.569662865e-07
7.684225775e-07
1.105547959e-06
6.078760052e-09
6.663657258e-09
7.864773823e-09
9.847180463e-09
1.289415395e-08
1.741406997e-08
2.291068940e-08
3.127290763e-08
4.288901073e-08
5.815831977e-08
7.849967165e-08
1.044872169e-07
1.380489242e-07
1.840396460e-07
2.524552988e-07
3.529645623e-07
4.879979097e-07
6.644289193e-07
9.119734786e-07
1.408895554e-06
8.904565563e-09
9.732107284e-09
1.141976189e-08
1.417339815e-08
1.833781333e-08
2.336470003e-08
3.089006115e-08
4.148634279e-08
5.587302249e-08
7.440137076e-08
9.806310495e-08
1.282430732e-07
1.683373784e-07
2.259724732e-07
3.111640362e-07
4.278685847e-07
5.787285039e-07
7.779092979e-07
1.082814377e-06
2.188661080e-06
1.253894515e-08
1.365431693e-08
1.591387252e-08
1.955789992e-08
2.397665653e-08
3.059387055e-08
4.020643406e-08
5.327732135e-08
7.021506389e-08
9.169524789e-08
1.188336614e-07
1.540086520e-07
2.027441484e-07
2.741822700e-07
3.745024080e-07
5.049511931e-07
6.721138673e-07
9.009374032e-07
1.315092863e-06
3.377849483e-03
1.701495285e-08
1.842868417e-08
2.130181226e-08
2.491816145e-08
3.057338381e-08
3.913437451e-08
5.083457851e-08
6.608389579e-08
8.548193064e-08
1.098578894e-07
1.408770764e-07
1.823848767e-07
2.418380714e-07
3.269780323e-07
4.399447053e-07
5.832421123e-07
7.689340926e-07
1.040673712e-06
1.730549901e-06
1.741662982e-02
2.256121434e-08
2.394629247e-08
2.641315598e-08
3.104894492e-08
3.856860196e-08
4.878802370e-08
6.229677152e-08
7.961736684e-08
1.014094312e-07
1.288368280e-07
1.644999621e-07
2.139400403e-07
2.850415753e-07
3.821337700e-07
5.060957106e-07
6.625359469e-07
8.709901621e-07
1.212330116e-06
3.341099318e-06
2.814129655e-02
2.687602579e-08
2.862825363e-08
3.241424818e-08
3.860563897e-08
4.734808306e-08
5.908927540e-08
7.433550684e-08
9.364716497e-08
1.178699037e-07
1.487412123e-07
1.901010653e-07
2.487212093e-07
3.308674327e-07
4.380487786e-07
5.723119657e-07
7.431312083e-07
9.815300908e-07
1.453548678e-06
6.478691414e-03
3.746172649e-02
3.249837810e-08
3.492743566e-08
3.964939348e-08
4.677633141e-08
5.670383660e-08
6.986895762e-08
8.676311487e-08
1.080355298e-07
1.348617678e-07
1.697896878e-07
2.179256028e-07
2.860688304e-07
3.778110007e-07
4.938232315e-07
6.383737111e-07
8.257686456e-07
1.106305995e-06
1.888885329e-06
1.724075293e-02
4.628498679e-02
3.947750364e-08
4.219121792e-08
4.746186793e-08
5.544598342e-08
6.647971974e-08
8.097604550e-08
9.945310928e-08
1.227329387e-07
1.524791259e-07
1.922072887e-07
2.478579348e-07
3.249177700e-07
4.248272325e-07
5.490019317e-07
7.043248688e-07
9.116844556e-07
1.256092665e-06
3.342871390e-06
2.575501736e-02
5.507450415e-02
4.687079215e-08
4.987414685e-08
5.569394250e-08
6.448002773e-08
7.654370671e-08
9.229732062e-08
1.123385529e-07
1.377622701e-07
1.708637291e-07
2.160921907e-07
2.793990995e-07
3.642726818e-07
4.713040094e-07
6.033848701e-07
7.704036366e-07
1.002778959e-06
1.453387284e-06
3.404769923e-03
3.307413283e-02
6.405638477e-02
5.460480050e-08
5.788779275e-08
6.423071856e-08
7.376580075e-08
8.679506809e-08
1.037618100e-07
1.254053016e-07
1.531956348e-07
1.901453339e-07
2.413368369e-07
3.118537331e-07
4.034273467e-07
5.169123021e-07
6.569265863e-07
8.370169144e-07
1.101956540e-06
1.754204904e-06
1.245231959e-02
3.974062242e-02
7.330356902e-02
6.260360066e-08
6.614959200e-08
7.298227999e-08
8.321819780e-08
9.716659924e-08
1.153383524e-07
1.386805740e-07
1.691261351e-07
2.103763050e-07
2.676312779e-07
3.445691293e-07
4.419485285e-07
5.614923932e-07
7.096826140e-07
9.047423926e-07
1.213792046e-06
2.349105318e-06
1.960215476e-02
4.604748010e-02
8.277722096e-02
7.079931838e-08
7.459031197e-08
8.188061339e-08
9.277896956e-08
1.076222719e-07
1.270292303e-07
1.522187090e-07
1.856374407e-07
2.314989796e-07
2.945521014e-07
3.770566475e-07
4.795931726e-07
6.049871646e-07
7.617806926e-07
9.743520252e-07
1.345884704e-06
4.634851798e-06
2.558659071e-02
5.215275983e-02
9.235695790e-02
7.913696284e-08
8.315668291e-08
9.087819909e-08
1.024141318e-07
1.181526741e-07
1.388617971e-07
1.660854452e-07
2.027729698e-07
2.533484236e-07
3.216803620e-07
4.089980539e-07
5.162389060e-07
6.474045735e-07
8.134048552e-07
1.046863461e-06
1.511862636e-06
2.989511085e-03
3.081600255e-02
5.813523649e-02
1.018700447e-01
8.757588411e-08
9.181159971e-08
9.994636831e-08
1.121106767e-07
1.287696413e-07
1.508797050e-07
1.803419486e-07
2.205161077e-07
2.756862112e-07
3.486764112e-07
4.402056277e-07
5.518380358e-07
6.887947464e-07
8.647863075e-07
1.123625388e-06
1.738941580e-06
9.692188543e-03
3.553082208e-02
6.402451527e-02
1.111190946e-01
9.608963980e-08
1.005331675e-07
1.090729453e-07
1.218728360e-07
1.395005319e-07
1.631334811e-07
1.950299262e-07
2.387938889e-07
2.982553005e-07
3.753000846e-07
4.705804087e-07
5.863906469e-07
7.292370267e-07
9.162002294e-07
1.206460763e-06
2.090938109e-06
1.515657972e-02
3.987653882e-02
6.981910241e-02
1.199049066e-01
1.046648113e-07
1.093129798e-07
1.182597976e-07
1.317182485e-07
1.503825766e-07
1.756717339e-07
2.101573757e-07
2.574847609e-07
3.208251687e-07
4.013978132e-07
5.000812944e-07
6.199264524e-07
7.688302195e-07
9.679665680e-07
1.297900470e-06
2.763479809e-06
1.976503018e-02
4.394276046e-02
7.549871320e-02
1.280432417e-01
1.132994434e-07
1.181542272e-07
1.275200455e-07
1.416742986e-07
1.614572226e-07
1.885332640e-07
2.257010005e-07
2.764413769e-07
3.432146515e-07
4.268817262e-07
5.287041869e-07
6.524953145e-07
8.076874021e-07
1.020455181e-06
1.401584395e-06
4.816540403e-06
2.375818400e-02
4.778518562e-02
8.103314757e-02
1.353800527e-01
1.220012282e-07
1.270695105e-07
1.368754058e-07
1.517741818e-07
1.727648501e-07
2.017382572e-07
2.416064943e-07
2.955153159e-07
3.652949480e-07
4.517088695e-07
5.564686860e-07
6.841592022e-07
8.459321645e-07
1.074094121e-06
1.522974968e-06
5.550566786e-04
2.729240582e-02
5.143829968e-02
8.638906863e-02
1.418085705e-01
1.307856691e-07
1.360787864e-07
1.463534661e-07
1.620534097e-07
1.843398224e-07
2.152858228e-07
2.577960306e-07
3.145751280e-07
3.869824783e-07
4.758671008e-07
5.834094375e-07
7.149878500e-07
8.836964301e-07
1.129383877e-06
1.670716034e-06
5.411466305e-03
3.047260750e-02
5.492325231e-02
9.153447242e-02
1.472850662e-01
1.396741477e-07
1.452070866e-07
1.559849852e-07
1.725462120e-07
1.962056425e-07
2.291564498e-07
2.741800523e-07
3.335152851e-07
4.082286105e-07
4.993641061e-07
6.095705843e-07
7.450561711e-07
9.211192940e-07
1.186916903e-06
1.859436995e-06
9.525358793e-03
3.337124996e-02
5.825293911e-02
9.644200274e-02
1.518337971e-01
1.486920140e-07
1.544824419e-07
1.658012092e-07
1.832821452e-07
2.083702578e-07
2.433119484e-07
2.906686115e-07
3.522575581e-07
4.290098639e-07
5.222207235e-07
6.350015553e-07
7.744411480e-07
9.583466148e-07
1.247405463e-06
2.116191815e-06
1.305948722e-02
3.603969694e-02
6.143527394e-02
1.010904591e-01
1.555349646e-01
1.578664975e-07
1.639335929e-07
1.758312752e-07
1.942830092e-07
2.208293267e-07
2.577007026e-07
3.071800345e-07
3.707482372e-07
4.493204031e-07
5.444655000e-07
6.597552889e-07
8.032212251e-07
9.955313915e-07
1.311721633e-06
2.497621083e-06
1.614626938e-02
3.851531808e-02
6.447527744e-02
1.054655105e-01
1.585011073e-01
1.672248750e-07
1.735878749e-07
1.860997283e-07
2.055585088e-07
2.335646795e-07
2.722638301e-07
3.236458392e-07
3.889535014e-07
4.691663613e-07
5.661319467e-07
6.838854252e-07
8.314751096e-07
1.032835335e-06
1.380954233e-06
3.146828715e-06
1.888040007e-02
4.082594999e-02
6.737655548e-02
1.095595178e-01
1.608538136e-01
1.767922934e-07
1.834690338e-07
1.966236884e-07
2.171091777e-07
2.465460701e-07
2.869414947e-07
3.400120775e-07
4.068546765e-07
4.885616337e-07
5.872565286e-07
7.074462446e-07
8.592811942e-07
1.070430349e-06
1.456491902e-06
4.564611616e-06
2.133109792e-02
4.299281955e-02
7.014214466e-02
1.133706683e-01
1.627075425e-01
1.865900779e-07
1.935951188e-07
2.074103101e-07
2.289247811e-07
2.597345115e-07
3.016775419e-07
3.562387462e-07
4.244442836e-07
5.075253018e-07
6.078765063e-07
7.304912098e-07
8.867175786e-07
1.108500166e-06
1.540145663e-06
1.057020216e-05
2.354996682e-02
4.503255363e-02
7.277506419e-02
1.169024851e-01
1.641622171e-01
1.966331037e-07
2.039751962e-07
2.184594073e-07
2.409850715e-07
2.730865006e-07
3.164227985e-07
3.722977457e-07
4.417228260e-07
5.260792774e-07
6.280297071e-07
7.530725880e-07
9.138619354e-07
1.147244172e-06
1.634341610e-06
1.260372408e-03
2.557634779e-02
4.695849671e-02
7.527871189e-02
1.201626520e-01
1.653009965e-01
2.069279162e-07
2.146117786e-07
2.297616097e-07
2.532616819e-07
2.865575053e-07
3.311362745e-07
3.881707701e-07
4.586961580e-07
5.442474459e-07
6.477533683e-07
7.752415076e-07
9.407916826e-07
1.186880605e-06
1.742422279e-06
4.187290600e-03
2.744070446e-02
4.878160196e-02
7.765691309e-02
1.231621549e-01
1.661911430e-01
2.174751943e-07
2.254994006e-07
2.412991750e-07
2.657209279e-07
3.001051290e-07
3.457853387e-07
4.038473640e-07
4.753739535e-07
5.620542499e-07
6.670836146e-07
7.970472016e-07
9.675843405e-07
1.227651634e-06
1.869147216e-06
6.793961995e-03
2.916705833e-02
5.051108032e-02
7.991386946e-02
1.259140901e-01
1.668861216e-01
2.282677574e-07
2.366247487e-07
2.530475406e-07
2.783266050e-07
3.136911242e-07
3.603452741e-07
4.193226801e-07
4.917685434e-07
5.795242268e-07
6.860560087e-07
8.185379527e-07
9.943178138e-07
1.269829426e-06
2.021567668e-06
9.131587721e-03
3.077463551e-02
5.215481488e-02
8.205425320e-02
1.284331798e-01
1.674282325e-01
2.392910652e-07
2.479677126e-07
2.649774477e-07
2.910423578e-07
3.272826615e-07
3.747977703e-07
4.345961868e-07
5.078935273e-07
5.966818788e-07
7.047043539e-07
8.397601841e-07
1.021070918e-06
1.313723457e-06
2.210631003e-06
1.124549856e-02
3.227908962e-02
5.371975395e-02
8.408333051e-02
1.307357324e-01
1.678509022e-01
2.505246355e-07
2.595030558e-07
2.770571679e-07
3.038339791e-07
3.408522761e-07
3.891305060e-07
4.496706748e-07
5.237633787e-07
6.135509971e-07
7.230612500e-07
8.607588543e-07
1.047924151e-06
1.359689539e-06
2.454370449e-06
1.317171876e-02
3.369326901e-02
5.521201117e-02
8.600638998e-02
1.328378151e-01
1.681800938e-01
2.619433867e-07
2.712023489e-07
2.892546333e-07
3.166704050e-07
3.543781390e-07
4.033350931e-07
4.645508432e-07
5.393931748e-07
6.301547383e-07
7.411583470e-07
8.815782343e-07
1.074960323e-06
1.408143657e-06
2.784846238e-06
1.493906846e-02
3.502786525e-02
5.663708246e-02
8.782888642e-02
1.347554012e-01
1.684360863e-01
2.735195271e-07
2.830358864e-07
3.015390548e-07
3.295245988e-07
3.678430348e-07
4.174071582e-07
4.792433240e-07
5.547977468e-07
6.465152119e-07
7.590254751e-07
9.022610635e-07
1.102265513e-06
1.459577388e-06
3.265266576e-06
1.657075475e-02
3.629189228e-02
5.799991634e-02
8.955635752e-02
1.365040548e-01
1.686348323e-01
2.852245313e-07
2.949742772e-07
3.138820717e-07
3.423738429e-07
3.812341124e-07
4.313448135e-07
4.937555829e-07
5.699922277e-07
6.626539926e-07
7.766916549e-07
9.228496168e-07
1.129929681e-06
1.514579640e-06
4.040252612e-06
1.808572209e-02
3.749300821e-02
5.930507719e-02
9.119437077e-02
1.380986209e-01
1.687890231e-01
2.970302061e-07
3.069898277e-07
3.262586724e-07
3.551993843e-07
3.945419799e-07
4.451482711e-07
5.080957471e-07
5.849911378e-07
6.785918490e-07
7.941846574e-07
9.433856652e-07
1.158048361e-06
1.573865808e-06
5.528903978e-06
1.949960450e-02
3.863784145e-02
6.055685790e-02
9.274871203e-02
1.395541277e-01
1.689082398e-01
3.089102083e-07
3.190573505e-07
3.386470325e-07
3.679861968e-07
4.077603426e-07
4.588193374e-07
5.222726071e-07
5.998087446e-07
6.943481115e-07
8.115314647e-07
9.639104187e-07
1.186723275e-06
1.638316710e-06
9.641665486e-06
2.082530620e-02
3.973204456e-02
6.175909989e-02
9.422471271e-02
1.408838741e-01
1.690002125e-01
3.208405904e-07
3.311545801e-07
3.510291786e-07
3.807225852e-07
4.208849792e-07
4.723611022e-07
5.362948637e-07
6.144589218e-07
7.099420518e-07
8.287578278e-07
9.844652773e-07
1.216064010e-06
1.709034726e-06
6.245044017e-05
2.207370894e-02
4.078055950e-02
6.291530489e-02
9.562743956e-02
1.420995856e-01
1.690709285e-01
3.328001862e-07
3.432624424e-07
3.633900009e-07
3.933996702e-07
4.339137983e-07
4.857772499e-07
5.501714759e-07
6.289551690e-07
7.253918753e-07
8.458890238e-07
1.005091957e-06
1.246190165e-06
1.787421248e-06
1.684523565e-03
2.325393384e-02
4.178772524e-02
6.402878891e-02
9.696186039e-02
1.432125739e-01
1.691251268e-01
3.447709701e-07
3.553647973e-07
3.757175501e-07
4.060108486e-07
4.468459226e-07
4.990723993e-07
5.639115080e-07
6.433104862e-07
7.407151631e-07
8.629498677e-07
1.025832657e-06
1.277232463e-06
1.875290672e-06
3.477131444e-03
2.437375302e-02
4.275735678e-02
6.510263100e-02
9.823277090e-02
1.442332004e-01
1.691665132e-01
3.567374874e-07
3.674484878e-07
3.880023188e-07
4.185516259e-07
4.596819061e-07
5.122515807e-07
5.775236816e-07
6.575374490e-07
7.559288924e-07
8.799642410e-07
1.046730588e-06
1.309336656e-06
1.975044611e-06
5.148173617e-03
2.543987014e-02
4.369286687e-02
6.613971401e-02
9.944473002e-02
1.451709517e-01
1.691979608e-01
3.686871900e-07
3.795027563e-07
4.002372008e-07
4.310189875e-07
4.724230702e-07
5.253199178e-07
5.910168514e-07
6.716481606e-07
7.710492995e-07
8.969561003e-07
1.067830062e-06
1.342665195e-06
2.089928351e-06
6.709910768e-03
2.645797775e-02
4.459727310e-02
6.714264672e-02
1.006019486e-01
1.460341179e-01
1.692216756e-01
3.806099072e-07
3.915191479e-07
4.124165544e-07
4.434113007e-07
4.850715438e-07
5.382829131e-07
6.043994904e-07
6.856546301e-07
7.860927226e-07
9.139490461e-07
1.089177278e-06
1.377401174e-06
2.224453492e-06
8.174933677e-03
2.743307087e-02
4.547327432e-02
6.811391499e-02
1.017084248e-01
1.468303721e-01
1.692400302e-01
3.924974878e-07
4.034911555e-07
4.245367450e-07
4.557278708e-07
4.976299981e-07
5.511463117e-07
6.176801707e-07
6.995681640e-07
8.010745217e-07
9.309664645e-07
1.110820540e-06
1.413753395e-06
2.385086698e-06
9.554306989e-03
2.836948905e-02
4.632334834e-02
6.905595655e-02
1.027682332e-01
1.475668731e-01
1.692532611e-01
4.043434965e-07
4.154138782e-07
4.365950151e-07
4.679690668e-07
5.101014982e-07
5.639157324e-07
6.308671341e-07
7.134000634e-07
8.160099363e-07
9.480318754e-07
1.132810655e-06
1.451960631e-06
2.581463828e-06
1.085751918e-02
2.927100924e-02
4.714968191e-02
6.997090150e-02
1.037850385e-01
1.482502843e-01
1.692628376e-01
4.161432074e-07
4.272836756e-07
4.485900966e-07
4.801356982e-07
5.224893584e-07
5.765969661e-07
6.439684308e-07
7.271610377e-07
8.309141405e-07
9.651693627e-07
1.155201334e-06
1.492299835e-06
2.828598645e-06
1.209274078e-02
3.014092343e-02
4.795419609e-02
7.086056463e-02
1.047617076e-01
1.488852705e-01
1.692699924e-01
4.278931856e-07
4.390982343e-07
4.605211766e-07
4.922294803e-07
5.347972703e-07
5.891958428e-07
6.569921435e-07
7.408618041e-07
8.458017863e-07
9.824027662e-07
1.178050300e-06
1.535092957e-06
3.151301728e-06
1.326705116e-02
3.098215920e-02
4.873865576e-02
7.172681721e-02
1.057012514e-01
1.494766636e-01
1.692752631e-01
4.395910017e-07
4.508560258e-07
4.723884609e-07
5.042520726e-07
5.470292013e-07
6.017181074e-07
6.699459311e-07
7.545127966e-07
8.606876424e-07
9.997569031e-07
1.201419485e-06
1.580720089e-06
3.593750818e-06
1.438659398e-02
3.179729104e-02
4.950470456e-02
7.257135126e-02
1.066065811e-01
1.500290768e-01
1.692790733e-01
4.512352161e-07
4.625563687e-07
4.841925858e-07
5.162060086e-07
5.591890011e-07
6.141693700e-07
6.828376914e-07
7.681242602e-07
8.755864145e-07
1.017257084e-06
1.225375641e-06
1.629632014e-06
4.242979677e-06
1.545675721e-02
3.258867045e-02
5.025380434e-02
7.339578404e-02
1.074803591e-01
1.505465429e-01
1.692817896e-01
4.628249088e-07
4.741992462e-07
4.959345982e-07
5.280937079e-07
5.712808525e-07
6.265555717e-07
6.956748772e-07
7.817062825e-07
8.905127706e-07
1.034929355e-06
1.249991987e-06
1.682370392e-06
5.297232804e-06
1.648223522e-02
3.335832402e-02
5.098731062e-02
7.420160247e-02
1.083250545e-01
1.510325753e-01
1.692836992e-01
4.743601479e-07
4.857851427e-07
5.076161660e-07
5.399181051e-07
5.833090541e-07
6.388822279e-07
7.084650768e-07
7.952692462e-07
9.054817368e-07
1.052801283e-06
1.275348954e-06
1.739591653e-06
7.324087751e-06
1.746717640e-02
3.410811246e-02
5.170646716e-02
7.499014641e-02
1.091428818e-01
1.514903647e-01
1.692850265e-01
4.858412546e-07
4.973150565e-07
5.192392814e-07
5.516822143e-07
5.952776532e-07
6.511551293e-07
7.212157215e-07
8.088226665e-07
9.205079492e-07
1.070901150e-06
1.301534305e-06
1.802101118e-06
1.282812941e-05
1.841522474e-02
3.483970076e-02
5.241238987e-02
7.576273658e-02
1.099359726e-01
1.519227525e-01
1.692859328e-01
4.972691890e-07
5.087903804e-07
5.308058221e-07
5.633890567e-07
6.071911711e-07
6.633800479e-07
7.339339448e-07
8.223770521e-07
9.356070451e-07
1.089259003e-06
1.328646757e-06
1.870898227e-06
6.758466851e-05
1.932963259e-02
3.555457532e-02
5.310611375e-02
7.652051072e-02
1.107062168e-01
1.523322077e-01
1.692865435e-01
5.086450231e-07
5.202126689e-07
5.423184236e-07
5.750421358e-07
6.190539467e-07
6.755623376e-07
7.466274005e-07
8.359419991e-07
9.507944274e-07
1.107906711e-06
1.356795202e-06
1.947241556e-06
1.201136029e-03
2.021327681e-02
3.625407357e-02
5.378858743e-02
7.726459142e-02
1.114554026e-01
1.527210398e-01
1.692869439e-01
5.199702717e-07
5.315837544e-07
5.537793278e-07
5.866446732e-07
6.308703393e-07
6.877078413e-07
7.593031262e-07
8.495280369e-07
9.660862695e-07
1.126877828e-06
1.386102633e-06
2.032739539e-06
2.551592703e-03
2.106873946e-02
3.693943887e-02
5.446067023e-02
7.799596820e-02
1.121851711e-01
1.530912511e-01
1.692871944e-01
5.312469034e-07
5.429059150e-07
5.651915840e-07
5.982001257e-07
6.426446576e-07
6.998220443e-07
7.719686732e-07
8.631449779e-07
9.814990205e-07
1.146208174e-06
1.416707465e-06
2.129480692e-06
3.845042382e-03
2.189831523e-02
3.761177272e-02
5.512318972e-02
7.871560576e-02
1.128970167e-01
1.534446614e-01
1.692873459e-01
5.424766850e-07
5.541812502e-07
5.765577710e-07
6.097123260e-07
6.543817183e-07
7.119106876e-07
7.846311255e-07
8.768034204e-07
9.970498845e-07
1.165936874e-06
1.448766934e-06
2.240236380e-06
5.082037977e-03
2.270406971e-02
3.827207368e-02
5.577688002e-02
7.942437082e-02
1.135923555e-01
1.537828776e-01
1.692874152e-01
5.536618302e-07
5.654124035e-07
5.878808610e-07
6.211845557e-07
6.660856517e-07
7.239794287e-07
7.972981731e-07
8.905137343e-07
1.012756649e-06
1.186104985e-06
1.482461083e-06
2.368760632e-06
6.266700303e-03
2.348786591e-02
3.892127799e-02
5.642240846e-02
8.012309888e-02
1.142724568e-01
1.541073828e-01
1.692874240e-01
5.648047676e-07
5.766017529e-07
5.991640821e-07
6.326206970e-07
6.777610392e-07
7.360339197e-07
8.099769493e-07
9.042868719e-07
1.028638196e-06
1.206758149e-06
1.517996080e-06
2.520280907e-06
7.403164390e-03
2.425140212e-02
3.956023054e-02
5.706042163e-02
8.081251012e-02
1.149384720e-01
1.544194685e-01
1.692873779e-01
5.759078428e-07
5.877521547e-07
6.104103691e-07
6.440244498e-07
6.894125336e-07
7.480797286e-07
8.226752690e-07
9.181338934e-07
1.044713802e-06
1.227944952e-06
1.555610417e-06
2.702294070e-06
8.495321278e-03
2.499619200e-02
4.018971085e-02
5.769151334e-02
8.149333908e-02
1.155915219e-01
1.547203467e-01
1.692872754e-01
5.869736887e-07
5.988664136e-07
6.216230437e-07
6.553997461e-07
7.010448024e-07
7.601227905e-07
8.354007470e-07
9.320660993e-07
1.061004401e-06
1.249719138e-06
1.595582045e-06
2.925966878e-06
9.546630738e-03
2.572362711e-02
4.081039606e-02
5.831620733e-02
8.216623069e-02
1.162326176e-01
1.550110171e-01
1.692871110e-01
5.980048898e-07
6.099472894e-07
6.328054014e-07
6.667500917e-07
7.126622128e-07
7.721688425e-07
8.481611076e-07
9.460952286e-07
1.077531859e-06
1.272139381e-06
1.638236674e-06
3.208698192e-06
1.056028708e-02
2.643495939e-02
4.142297080e-02
5.893501860e-02
8.283177922e-02
1.168626426e-01
1.552924433e-01
1.692868730e-01
6.090043333e-07
6.209978053e-07
6.439606556e-07
6.780796304e-07
7.242697726e-07
7.842238986e-07
8.609643801e-07
9.602336920e-07
1.094319061e-06
1.295270271e-06
1.683958641e-06
3.579194202e-06
1.153915458e-02
2.713134436e-02
4.202802513e-02
5.954840874e-02
8.349057975e-02
1.174824950e-01
1.555654994e-01
1.692865527e-01
6.199747459e-07
6.320210574e-07
6.550922171e-07
6.893923653e-07
7.358721930e-07
7.962938282e-07
8.738186386e-07
9.744940381e-07
1.111391142e-06
1.319183523e-06
1.733206323e-06
4.088405688e-06
1.248581646e-02
2.781385208e-02
4.262611981e-02
6.015684151e-02
8.414313890e-02
1.180929577e-01
1.558309171e-01
1.692861394e-01
6.309191194e-07
6.430200788e-07
6.662037277e-07
7.006921363e-07
7.474740328e-07
8.083847898e-07
8.867324387e-07
9.888895601e-07
1.128774487e-06
1.343958301e-06
1.786529945e-06
4.836212057e-06
1.340263413e-02
2.848341542e-02
4.321776504e-02
6.076067524e-02
8.478994925e-02
1.186946952e-01
1.560894088e-01
1.692856136e-01
6.418403638e-07
6.539980854e-07
6.772985360e-07
7.119832054e-07
7.590805057e-07
8.205029104e-07
8.997143315e-07
1.003434116e-06
1.146497201e-06
1.369683174e-06
1.844596036e-06
6.048102939e-06
1.429174311e-02
2.914093733e-02
4.380344188e-02
6.136033332e-02
8.543144567e-02
1.192884195e-01
1.563415665e-01
1.692849613e-01
6.527417734e-07
6.649582507e-07
6.883802596e-07
7.232695326e-07
7.706964395e-07
8.326548044e-07
9.127734158e-07
1.018142490e-06
1.164590254e-06
1.396457371e-06
1.908222727e-06
8.359252282e-06
1.515508346e-02
2.978722277e-02
4.438359452e-02
6.195614575e-02
8.606810404e-02
1.198746844e-01
1.565879335e-01
1.692841693e-01
6.636262957e-07
6.759040294e-07
6.994526937e-07
7.345552928e-07
7.823267981e-07
8.448468471e-07
9.259187337e-07
1.033029757e-06
1.183086429e-06
1.424391794e-06
1.978423353e-06
1.447290506e-05
1.599446128e-02
3.042304412e-02
4.495863448e-02
6.254845145e-02
8.670026371e-02
1.204541038e-01
1.568290088e-01
1.692832200e-01
6.744971903e-07
6.868387213e-07
7.105194453e-07
7.458450155e-07
7.939769256e-07
8.570856509e-07
9.391599910e-07
1.048112363e-06
1.202021387e-06
1.453612995e-06
2.056471637e-06
6.434376451e-05
1.681147862e-02
3.104907907e-02
4.552893963e-02
6.313753360e-02
8.732833783e-02
1.210271787e-01
1.570652710e-01
1.692820939e-01
6.853577032e-07
6.977655964e-07
7.215842114e-07
7.571428916e-07
8.056522261e-07
8.693783122e-07
9.525072437e-07
1.063407358e-06
1.221434496e-06
1.484263631e-06
2.143985993e-06
9.826094851e-04
1.760764518e-02
3.166598459e-02
4.609487072e-02
6.372371331e-02
8.795262079e-02
1.215943438e-01
1.572970981e-01
1.692807719e-01
6.962111475e-07
7.086885186e-07
7.326510783e-07
7.684534068e-07
8.173579682e-07
8.817319732e-07
9.659710479e-07
1.078933256e-06
1.241367530e-06
1.516506838e-06
2.243068933e-06
2.153634246e-03
1.838430669e-02
3.227434420e-02
4.665676255e-02
6.430725808e-02
8.857347151e-02
1.221560899e-01
1.575248446e-01
1.692792424e-01
7.070609449e-07
7.196107979e-07
7.437238512e-07
7.797811596e-07
8.290996932e-07
8.941537590e-07
9.795622147e-07
1.094709510e-06
1.261867416e-06
1.550529477e-06
2.356486249e-06
3.289491157e-03
1.914273991e-02
3.287471722e-02
4.721493525e-02
6.488838776e-02
8.919118020e-02
1.227128331e-01
1.577488324e-01
1.692774847e-01
7.179105546e-07
7.305362694e-07
7.548067184e-07
7.911307893e-07
8.408833277e-07
9.066516102e-07
9.932923329e-07
1.110756892e-06
1.282984998e-06
1.586546848e-06
2.487970192e-06
4.386682633e-03
1.988411072e-02
3.346761763e-02
4.776966351e-02
6.546736329e-02
8.980600222e-02
1.232648240e-01
1.579693633e-01
1.692754873e-01
7.287637260e-07
7.414684893e-07
7.659036533e-07
8.025070909e-07
8.527146475e-07
9.192334027e-07
1.007173406e-06
1.127097573e-06
1.304775913e-06
1.624809141e-06
2.642672342e-06
5.446889805e-03
2.060947936e-02
3.405353051e-02
4.832123464e-02
6.604439725e-02
9.041821241e-02
1.238125220e-01
1.581866518e-01
1.692732320e-01
7.396237252e-07
7.524114541e-07
7.770188404e-07
8.139151054e-07
8.645996949e-07
9.319073279e-07
1.021218370e-06
1.143755688e-06
1.327302651e-06
1.665608191e-06
2.827920109e-06
6.472339427e-03
2.131985539e-02
3.463289271e-02
4.886990079e-02
6.661969552e-02
9.102806405e-02
1.243561517e-01
1.584009176e-01
1.692707007e-01
7.504945616e-07
7.633689774e-07
7.881568276e-07
8.253597150e-07
8.765450878e-07
9.446821630e-07
1.035440589e-06
1.160757019e-06
1.350633548e-06
1.709285902e-06
3.054507958e-06
7.465211503e-03
2.201614299e-02
3.520614455e-02
4.941591700e-02
6.719348089e-02
9.163574789e-02
1.248960046e-01
1.586124047e-01
1.692678819e-01
7.613801088e-07
7.743451383e-07
7.993219608e-07
8.368461597e-07
8.885571163e-07
9.575667399e-07
1.049854440e-06
1.178129434e-06
1.374845111e-06
1.756248056e-06
3.339014956e-06
8.427570924e-03
2.269918640e-02
3.577364864e-02
4.995949397e-02
6.776588640e-02
9.224149780e-02
1.254323436e-01
1.588212519e-01
1.692647474e-01
7.722840236e-07
7.853442405e-07
8.105187098e-07
8.483800052e-07
9.006424823e-07
9.705708134e-07
1.064474925e-06
1.195903024e-06
1.400022499e-06
1.806978021e-06
3.708301814e-06
9.361371061e-03
2.336979960e-02
3.633579592e-02
5.050085266e-02
6.833713927e-02
9.284548533e-02
1.259653719e-01
1.590276500e-01
1.692612908e-01
7.832104643e-07
7.963700762e-07
8.217519955e-07
8.599667130e-07
9.128085874e-07
9.837040399e-07
1.079318383e-06
1.214110540e-06
1.426261162e-06
1.862057499e-06
4.208930091e-06
1.026839700e-02
2.402870466e-02
3.689292915e-02
5.104019080e-02
6.890736131e-02
9.344792118e-02
1.264953614e-01
1.592317228e-01
1.692574802e-01
7.941636212e-07
8.074274805e-07
8.330266767e-07
8.716119800e-07
9.250626916e-07
9.969769335e-07
1.094401966e-06
1.232787584e-06
1.453668482e-06
1.922192198e-06
4.929155197e-06
1.115031109e-02
2.467658447e-02
3.744535829e-02
5.157770714e-02
6.947671892e-02
9.404893193e-02
1.270224828e-01
1.594336263e-01
1.692533150e-01
8.051475247e-07
8.185206520e-07
8.443476785e-07
8.833219286e-07
9.374124134e-07
1.010400712e-06
1.109743994e-06
1.251972945e-06
1.482366211e-06
1.988248736e-06
6.058680823e-06
1.200866599e-02
2.531410259e-02
3.799341314e-02
5.211358136e-02
7.004537596e-02
9.464873336e-02
1.275469284e-01
1.596334575e-01
1.692487600e-01
8.161668028e-07
8.296543634e-07
8.557201802e-07
8.951026618e-07
9.498657661e-07
1.023986832e-06
1.125364397e-06
1.271709131e-06
1.512491720e-06
2.061301967e-06
8.090444041e-06
1.284486764e-02
2.594184596e-02
3.853735144e-02
5.264798059e-02
7.061343382e-02
9.524743172e-02
1.280687971e-01
1.598312949e-01
1.692438084e-01
8.272259523e-07
8.408333505e-07
8.671497807e-07
9.069607904e-07
9.624312986e-07
1.037747607e-06
1.141284219e-06
1.292042567e-06
1.544201546e-06
2.142702604e-06
1.280803276e-05
1.366024211e-02
2.656037436e-02
3.907745604e-02
5.318106181e-02
7.118105147e-02
9.584518368e-02
1.285883026e-01
1.600272332e-01
1.692384455e-01
8.383293979e-07
8.520627725e-07
8.786417945e-07
9.189029004e-07
9.751180559e-07
1.051696263e-06
1.157526152e-06
1.313024885e-06
1.577675845e-06
2.234173702e-06
3.454614224e-05
1.445602007e-02
2.717020663e-02
3.961400654e-02
5.371300082e-02
7.174834440e-02
9.644210529e-02
1.291055381e-01
1.602213324e-01
1.692326458e-01
8.494822108e-07
8.633474651e-07
8.902022998e-07
9.309360989e-07
9.879349308e-07
1.065846497e-06
1.174114809e-06
1.334712266e-06
1.613121187e-06
2.337948058e-06
5.849192533e-04
1.523333525e-02
2.777185570e-02
4.014720805e-02
5.424392416e-02
7.231540327e-02
9.703830498e-02
1.296205794e-01
1.604136227e-01
1.692264018e-01
8.606895449e-07