/*--------------------------------*- C++ -*----------------------------------*\
| =========                 |                                                 |
| \\      /  F ield         | OpenFOAM: The Open Source CFD Toolbox           |
|  \\    /   O peration     | Version:  5.x                                   |
|   \\  /    A nd           | Web:      www.OpenFOAM.org                      |
|    \\/     M anipulation  |                                                 |
\*---------------------------------------------------------------------------*/
FoamFile
{
    version     2.0;
    format      ascii;
    class       volScalarField;
    location    "3.5";
    object       H;
}
// * * * * * * * * * * * * * * * * * * * * * * * * * * * * * * * * * * * * * //

dimensions      [0 0 0 0 0 0 0];

internalField   nonuniform List<scalar>
51080
(
0.000000000e+00
0.000000000e+00
0.000000000e+00
0.000000000e+00
0.000000000e+00
0.000000000e+00
0.000000000e+00
0.000000000e+00
0.000000000e+00
0.000000000e+00
4.312579608e-17
7.045492031e-17
1.176085849e-16
2.231177400e-16
5.150801546e-16
1.483998190e-15
5.687186657e-15
3.338040406e-14
4.217710818e-13
2.258541541e-11
0.000000000e+00
0.000000000e+00
0.000000000e+00
0.000000000e+00
0.000000000e+00
0.000000000e+00
0.000000000e+00
0.000000000e+00
3.235047706e-17
4.859129103e-17
8.006711583e-17
1.352500060e-16
2.626397523e-16
6.329645658e-16
1.895594057e-15
7.564453328e-15
4.588808053e-14
5.287559679e-13
1.589484165e-11
6.682145581e-10
0.000000000e+00
0.000000000e+00
0.000000000e+00
0.000000000e+00
0.000000000e+00
0.000000000e+00
0.000000000e+00
3.614767705e-17
5.424085213e-17
8.989150251e-17
1.527812470e-16
2.973020119e-16
7.164120796e-16
2.115467379e-15
8.140531621e-15
4.587941704e-14
4.487259757e-13
9.263601464e-12
2.771229673e-10
3.685006052e-09
0.000000000e+00
0.000000000e+00
0.000000000e+00
0.000000000e+00
0.000000000e+00
2.949618265e-17
4.036006808e-17
5.952105609e-17
9.550201711e-17
1.677557753e-16
3.223245610e-16
7.663164241e-16
2.196768470e-15
7.949641035e-15
4.087256770e-14
3.373844311e-13
5.245545246e-12
1.252998922e-10
1.752607739e-09
1.058908633e-08
0.000000000e+00
0.000000000e+00
0.000000000e+00
0.000000000e+00
3.396686925e-17
4.581731912e-17
6.677922582e-17
1.063920261e-16
1.880628484e-16
3.428063596e-16
7.911431804e-16
2.171161835e-15
7.338623242e-15
3.421419248e-14
2.408099322e-13
2.934435315e-12
5.718647820e-11
8.478257857e-10
5.690755300e-09
2.255694401e-08
0.000000000e+00
2.851230004e-17
3.268512914e-17
4.006135296e-17
5.277886972e-17
7.532626806e-17
1.176744838e-16
2.039379519e-16
3.637858138e-16
7.982219315e-16
2.075901170e-15
6.528830335e-15
2.758121195e-14
1.672300983e-13
1.639292044e-12
2.600324571e-11
3.970856439e-10
3.058598752e-09
1.297763801e-08
4.128362943e-08
3.829082139e-17
4.165837815e-17
4.895059782e-17
6.220620245e-17
8.597099290e-17
1.303119181e-16
2.191331944e-16
3.790667401e-16
7.910677314e-16
1.938155257e-15
5.662867135e-15
2.168403922e-14
1.142504584e-13
9.179639046e-13
1.179461683e-11
1.763338217e-10
1.578372460e-09
7.483544439e-09
2.437896889e-08
7.008579251e-08
5.718713059e-17
6.307741481e-17
7.606898046e-17
1.003987633e-16
1.458662986e-16
2.354212038e-16
3.913899293e-16
7.715132052e-16
1.779203116e-15
4.829191681e-15
1.677594031e-14
7.736844907e-14
5.171714399e-13
5.375254307e-12
7.408857189e-11
7.602656945e-10
4.174977391e-09
1.459621430e-08
4.098867466e-08
1.161234732e-07
8.801922279e-17
9.846196598e-17
1.219403760e-16
1.672909182e-16
2.557547876e-16
4.036081002e-16
7.419066282e-16
1.597417155e-15
4.124112585e-15
1.292106594e-14
5.235751306e-14
2.946468116e-13
2.484663075e-12
2.986512194e-11
3.355593627e-10
2.190696142e-09
8.555876802e-09
2.482431479e-08
6.477105444e-08
1.939494963e-07
1.388155450e-16
1.574595852e-16
2.002371910e-16
2.855567949e-16
4.226341857e-16
7.199141865e-16
1.449135690e-15
3.458514007e-15
9.914117840e-15
3.559355681e-14
1.706301839e-13
1.176271373e-12
1.183938693e-11
1.351880289e-10
1.054166599e-09
4.778635401e-09
1.494181946e-08
3.876192647e-08
9.944900741e-08
3.465110472e-07
2.231546436e-16
2.559891402e-16
3.335200580e-16
4.554454602e-16
7.149229990e-16
1.335855829e-15
2.931260027e-15
7.636572181e-15
2.443175845e-14
1.009115177e-13
5.751756940e-13
4.744454172e-12
5.056239101e-11
4.559647805e-10
2.478531826e-09
8.689125496e-09
2.352095461e-08
5.738373084e-08
1.518985954e-07
1.447613817e-06
3.717114652e-16
4.185434373e-16
5.134443556e-16
7.385291664e-16
1.277753079e-15
2.550417223e-15
6.007004855e-15
1.711808035e-14
6.138121141e-14
2.927608476e-13
1.967418604e-12
1.821306964e-11
1.762116769e-10
1.163832547e-09
4.760488360e-09
1.399887282e-08
3.453992571e-08
8.232725306e-08
2.279958929e-07
4.039551380e-06
5.320284157e-16
6.113590791e-16
8.163774004e-16
1.276783199e-15
2.310436108e-15
4.896136840e-15
1.240979174e-14
3.879418485e-14
1.564349853e-13
8.599992201e-13
6.609944081e-12
6.205819080e-11
4.845754286e-10
2.394549820e-09
7.961383667e-09
2.075511485e-08
4.837636126e-08
1.162816555e-07
4.616945074e-07
8.610448701e-06
8.202497862e-16
9.804002082e-16
1.370118540e-15
2.218259649e-15
4.200405910e-15
9.439946246e-15
2.577726413e-14
8.858811086e-14
4.019333598e-13
2.514837566e-12
2.089608067e-11
1.781731703e-10
1.077576360e-09
4.218567951e-09
1.208886750e-08
2.901495728e-08
6.560989530e-08
1.631282046e-07
1.386489450e-06
1.518536851e-05
1.352019953e-15
1.628985901e-15
2.315958728e-15
3.869900726e-15
7.659668557e-15
1.824862906e-14
5.372374486e-14
2.031115621e-13
1.031967800e-12
7.147441648e-12
5.950917336e-11
4.256989791e-10
2.028223238e-09
6.652673368e-09
1.712746527e-08
3.886979104e-08
8.710021121e-08
2.230695087e-07
3.177507455e-06
2.332228037e-05
2.225033270e-15
2.706673528e-15
3.923709256e-15
6.763726506e-15
1.398565155e-14
3.531645776e-14
1.121103209e-13
4.654353782e-13
2.615390176e-12
1.920695281e-11
1.482419082e-10
8.629460972e-10
3.370545800e-09
9.681105795e-09
2.305769007e-08
5.046170277e-08
1.140524664e-07
3.299994999e-07
6.019298299e-06
3.229104280e-05
3.659287664e-15
4.496735382e-15
6.650508605e-15
1.182486447e-14
2.553556652e-14
6.833019564e-14
2.336760696e-13
1.059447810e-12
6.441732852e-12
4.753808334e-11
3.209162761e-10
1.531167103e-09
5.107293502e-09
1.327235240e-08
2.986661485e-08
6.399501320e-08
1.479302641e-07
8.324957639e-07
9.920357435e-06
4.129426311e-05
6.014461265e-15
7.466989546e-15
1.126717682e-14
2.065956289e-14
4.657806225e-14
1.319875572e-13
4.849799433e-13
2.376466878e-12
1.516303765e-11
1.064365001e-10
6.109176127e-10
2.449937002e-09
7.221544453e-09
1.738976748e-08
3.755332728e-08
7.974424657e-08
1.894638310e-07
1.718951204e-06
1.472578820e-05
4.963358368e-05
9.878420981e-15
1.238957496e-14
1.907075999e-14
3.605007664e-14
8.480877801e-14
2.541213172e-13
9.982479703e-13
5.203062789e-12
3.357844557e-11
2.143915467e-10
1.043444466e-09
3.620772525e-09
9.686170096e-09
2.199760474e-08
4.613110208e-08
9.805346326e-08
2.315418221e-07
3.064969312e-06
2.017439153e-05
5.679336463e-05
1.621157006e-14
2.053786239e-14
3.223989392e-14
6.280084102e-14
1.540144285e-13
4.867037776e-13
2.027688302e-12
1.100666899e-11
6.913744006e-11
3.906081664e-10
1.632495199e-09
5.033119198e-09
1.247019759e-08
2.706416278e-08
5.562799362e-08
1.193135266e-07
3.098151675e-07
4.893132096e-06
2.596539207e-05
6.245478661e-05
2.658183892e-14
3.400953555e-14
5.442650936e-14
1.091741515e-13
2.786783220e-13
9.249168104e-13
4.040944071e-12
2.228487835e-11
1.316471502e-10
6.513019099e-10
2.381859454e-09
6.669623214e-09
1.554258354e-08
3.256306179e-08
6.608597413e-08
1.438741196e-07
6.141042723e-07
7.174205992e-06
3.181230812e-05
6.646980744e-05
4.354665433e-14
5.625491733e-14
9.173423851e-14
1.892971606e-13
5.017592579e-13
1.738587980e-12
7.851579270e-12
4.284138821e-11
2.320541878e-10
1.007561025e-09
3.287795407e-09
8.509971534e-09
1.887440340e-08
3.847359816e-08
7.755906878e-08
1.717698290e-07
1.075584352e-06
9.839727821e-06
3.747560896e-05
6.882287518e-05
7.127076535e-14
9.293615929e-14
1.543234742e-13
3.271345869e-13
8.974300913e-13
3.220712868e-12
1.478650230e-11
7.781849841e-11
3.808062148e-10
1.465036352e-09
4.341805270e-09
1.053330258e-08
2.243979827e-08
4.478055655e-08
9.010959005e-08
2.018312186e-07
1.712262599e-06
1.279851062e-05
4.277659940e-05
6.959970130e-05
1.165203470e-13
1.533141972e-13
2.590107486e-13
5.629100988e-13
1.591102906e-12
5.856128945e-12
2.684421410e-11
1.333689026e-10
5.865045518e-10
2.024789881e-09
5.532855117e-09
1.271974023e-08
2.621643288e-08
5.147378469e-08
1.038019603e-07
2.282170610e-07
2.528846749e-06
1.595214103e-05
4.759728482e-05
6.897051194e-05
1.902475232e-13
2.524615662e-13
4.334111422e-13
9.631925107e-13
2.789289473e-12
1.040979365e-11
4.678551684e-11
2.160334320e-10
8.552292173e-10
2.684516303e-09
6.848949975e-09
1.505112991e-08
3.018548615e-08
5.854750480e-08
1.186913161e-07
2.379174801e-07
3.517892105e-06
1.920647895e-05
5.187287663e-05
6.718013177e-05
3.100876629e-13
4.147438551e-13
7.223991242e-13
1.636187268e-12
4.821187496e-12
1.802276212e-11
7.809569697e-11
3.320396307e-10
1.190497793e-09
3.439747520e-09
8.278161733e-09
1.751140827e-08
3.433152759e-08
6.599970935e-08
1.348036218e-07
3.881839900e-07
4.662576109e-06
2.247884537e-05
5.558068830e-05
6.452841615e-05
5.042311435e-13
6.791864150e-13
1.197901657e-12
2.753866235e-12
8.192144621e-12
3.028914816e-11
1.247962751e-10
4.867397967e-10
1.593619442e-09
4.284797107e-09
9.809244403e-09
2.008676932e-08
3.864217217e-08
7.383135280e-08
1.520988223e-07
5.915458534e-07
5.940006891e-06
2.570156517e-05
5.872893588e-05
6.133199734e-05
8.173059387e-13
1.107549473e-12
1.973228959e-12
4.582146541e-12
1.364664193e-11
4.929051969e-11
1.911444172e-10
6.842990943e-10
2.064193709e-09
5.213474892e-09
1.143196125e-08
2.276550929e-08
4.310785196e-08
8.204561752e-08
1.704002860e-07
8.504697479e-07
7.324283977e-06
2.882270130e-05
6.134671895e-05
5.787861158e-05
1.319070663e-12
1.796081638e-12
3.223106208e-12
7.519360661e-12
2.222574250e-11
7.756160622e-11
2.813016222e-10
9.276246524e-10
2.600618563e-09
6.219539350e-09
1.313727099e-08
2.553796148e-08
4.772140902e-08
9.064700884e-08
1.892510957e-07
1.165822637e-06
8.789040016e-06
3.180489193e-05
6.347606221e-05
5.439469442e-05
2.116855188e-12
2.891964299e-12
5.210117816e-12
1.214239929e-11
3.530957586e-11
1.179830966e-10
3.990504795e-10
1.218463507e-09
3.200523350e-09
7.297017404e-09
1.491729000e-08
2.839629742e-08
5.247792976e-08
9.964005681e-08
2.075914950e-07
1.536344828e-06
1.030920498e-05
3.462360260e-05
6.516585665e-05
5.103589284e-05
3.372587664e-12
4.615161638e-12
8.317716317e-12
1.925078163e-11
5.462780094e-11
1.736203141e-10
5.476058593e-10
1.557585322e-09
3.861102122e-09
8.440388955e-09
1.676534557e-08
3.133431455e-08
5.737443364e-08
1.090281691e-07
2.229290849e-07
1.959093576e-06
1.186211579e-05
3.726480397e-05
6.646740998e-05
4.789536902e-05
5.324962724e-12
7.285829495e-12
1.308845493e-11
2.990342870e-11
8.222763554e-11
2.475414434e-10
7.295296130e-10
1.944995232e-09
4.579370757e-09
9.644652923e-09
1.867583042e-08
3.434730093e-08
6.240951823e-08
1.188113626e-07
2.288287666e-07
2.429910244e-06
1.342811892e-05
3.972254879e-05
6.743157408e-05
4.501888456e-05
8.316846215e-12
1.135739886e-11
2.025919381e-11
4.543753993e-11
1.204008687e-10
3.426522032e-10
9.467255311e-10
2.380135343e-09
5.352324116e-09
1.090539138e-08
2.064413363e-08
3.743180344e-08
6.758329628e-08
1.289838961e-07
2.500845830e-07
2.943899714e-06
1.499080471e-05
4.199720303e-05
6.810683289e-05
4.242054772e-05
1.282693433e-11
1.744867566e-11
3.079078663e-11
6.746047342e-11
1.715791997e-10
4.615680627e-10
1.200493871e-09
2.862052354e-09
6.177074801e-09
1.221874929e-08
2.266655956e-08
4.058550487e-08
7.289698592e-08
1.395304196e-07
3.358925698e-07
3.495796854e-06
1.653686726e-05
4.409363187e-05
6.853825067e-05
4.009492051e-05
1.949911864e-11
2.637277193e-11
4.588295276e-11
9.781188631e-11
2.382183735e-10
6.065365047e-10
1.491618165e-09
3.389540729e-09
7.050903465e-09
1.358139333e-08
2.474015362e-08
4.380708469e-08
7.835297736e-08
1.504203931e-07
4.380746075e-07
4.080282480e-06
1.805591890e-05
4.601954103e-05
6.876658251e-05
3.802616681e-05
2.916829054e-11
3.915640207e-11
6.696821638e-11
1.384995847e-10
3.226883678e-10
7.794069144e-10
1.820449443e-09
3.961258505e-09
7.971306541e-09
1.499053825e-08
2.686274265e-08
4.709605475e-08
8.395438937e-08
1.615996038e-07
5.566814434e-07
4.692192994e-06
1.954007193e-05
4.778450781e-05
6.882788070e-05
3.619324641e-05
4.287514061e-11
5.704301745e-11
9.568249823e-11
1.916180897e-10
4.271849324e-10
9.816296150e-10
2.187001596e-09
4.575796467e-09
8.936027238e-09
1.644382548e-08
2.903271565e-08
5.045265062e-08
8.970511188e-08
1.729774973e-07
6.917206617e-07
5.326701035e-06
2.098368736e-05
4.939950949e-05
6.875426601e-05
3.457216431e-05
6.186547778e-11
8.147632666e-11
1.338147754e-10
2.592638994e-10
5.536665942e-10
1.214291536e-09
2.591034381e-09
5.231739619e-09
9.943046877e-09
1.793932391e-08
3.124898750e-08
5.387778151e-08
9.560922782e-08
1.844059150e-07
8.429995130e-07
5.979378711e-06
2.238293892e-05
5.087574885e-05
6.857335661e-05
3.314011199e-05
8.757065051e-11
1.140645399e-10
1.832427170e-10
3.434562235e-10
7.038223209e-10
1.478145706e-09
3.032112962e-09
5.927716736e-09
1.099058884e-08
1.947551308e-08
3.351100821e-08
5.737292655e-08
1.016712223e-07
1.956437690e-07
1.010163666e-06
6.646257033e-06
2.373551653e-05
5.222435132e-05
6.830862688e-05
3.187607077e-05
1.215705716e-10
1.565291562e-10
2.458625884e-10
4.460740260e-10
8.790588008e-10
1.773672093e-09
3.509680698e-09
6.662408374e-09
1.207709004e-08
2.105115860e-08
3.581856589e-08
6.094008093e-08
1.078954500e-07
2.062943531e-07
1.192729153e-06
7.323840515e-06
2.504021041e-05
5.345617362e-05
6.797997765e-05
3.076036672e-05
1.655444260e-10
2.106447093e-10
3.235233112e-10
5.688123055e-10
1.080509524e-09
2.101116068e-09
4.023089900e-09
7.434601495e-09
1.320122437e-08
2.266536121e-08
3.817186562e-08
6.458160651e-08
1.142858702e-07
2.156874132e-07
1.390127087e-06
8.009087005e-06
2.629677604e-05
5.458136526e-05
6.760347202e-05
2.977545445e-05
2.212122774e-10
2.781781129e-10
4.179714673e-10
7.131545418e-10
1.309053494e-09
2.460532967e-09
4.571641443e-09
8.243153292e-09
1.436186954e-08
2.431748061e-08
4.057142669e-08
6.830033534e-08
1.208457342e-07
2.226419487e-07
1.601737253e-06
8.699424706e-06
2.750585585e-05
5.560998908e-05
6.719313341e-05
2.890450605e-05
2.902799036e-10
3.608337959e-10
5.308072472e-10
8.803645133e-10
1.565343517e-09
2.851833592e-09
5.154626775e-09
9.087030317e-09
1.555804181e-08
2.600712960e-08
4.301800581e-08
7.209936744e-08
1.275769674e-07
2.249884435e-07
1.826900846e-06
9.392649627e-06
2.866851177e-05
5.655113150e-05
6.675996617e-05
2.813329943e-05
3.743869476e-10
4.602077615e-10
6.634617721e-10
1.071489201e-09
1.849830676e-09
3.274814759e-09
5.771322468e-09
9.965301214e-09
1.678898421e-08
2.773409470e-08
4.551266324e-08
7.598212218e-08
1.344795489e-07
2.198988562e-07
2.064961958e-06
1.008691966e-05
2.978609623e-05
5.741295878e-05
6.631279387e-05
2.745085325e-05
4.750664706e-10
5.777569713e-10
8.171787172e-10
1.287370982e-09
2.162799945e-09
3.729183466e-09
6.421028360e-09
1.087712995e-08
1.805407092e-08
2.949839439e-08
4.805665054e-08
7.995224961e-08
1.415508492e-07
2.560728969e-07
2.315255943e-06
1.078072159e-05
3.086030024e-05
5.820298202e-05
6.585851011e-05
2.684619912e-05
5.937169927e-10
7.147771336e-10
9.930159066e-10
1.528663632e-09
2.504390303e-09
4.214596078e-09
7.103078165e-09
1.182178655e-08
1.935282594e-08
3.130022426e-08
5.065146036e-08
8.401361103e-08
1.487839795e-07
3.067781917e-07
2.577143462e-06
1.147281724e-05
3.189300600e-05
5.892808597e-05
6.540248557e-05
2.630979333e-05
7.315818906e-10
8.723969277e-10
1.191849115e-09
1.795857195e-09
2.874631162e-09
4.730666292e-09
7.816830238e-09
1.279862874e-08
2.068490114e-08
3.313989075e-08
5.329873428e-08
8.817026123e-08
1.561670478e-07
3.635137790e-07
2.850019192e-06
1.216221260e-05
3.288616198e-05
5.959448432e-05
6.494893025e-05
2.583331095e-05
8.897455859e-10
1.051574743e-09
1.414388324e-09
2.089294172e-09
3.273455249e-09
5.276978675e-09
8.561691104e-09
1.380709509e-08
2.205004938e-08
3.501788320e-08
5.600027593e-08
9.242643387e-08
1.636801631e-07
4.263518542e-07
3.133292817e-06
1.284813897e-05
3.384181220e-05
6.020791022e-05
6.450103522e-05
2.540976283e-05
1.069132198e-09
1.253107818e-09
1.661183052e-09
2.409194822e-09
3.700727647e-09
5.853110449e-09
9.337107792e-09
1.484673969e-08
2.344819923e-08
3.693483234e-08
5.875810719e-08
9.678627956e-08
1.712930089e-07
4.954219381e-07
3.426423139e-06
1.352997026e-05
3.476181154e-05
6.077292691e-05
6.406022595e-05
2.503214169e-05
1.270511434e-09
1.477642467e-09
1.932653477e-09
2.755671359e-09
4.156257500e-09
6.458647706e-09
1.014258529e-08
1.591716913e-08
2.487931818e-08
3.889142350e-08
6.157435094e-08
1.012542227e-07
1.789599561e-07
5.708477227e-07
3.728901824e-06
1.420727091e-05
3.564836367e-05
6.129462519e-05
6.362912899e-05
2.469661410e-05
1.494508025e-09
1.725688326e-09
2.229093122e-09
3.128757791e-09
4.639813078e-09
7.093172049e-09
1.097766980e-08
1.701809428e-08
2.634348547e-08
4.088851370e-08
6.445132575e-08
1.058344943e-07
1.866145268e-07
6.527364237e-07
4.040255787e-06
1.487975772e-05
3.650352317e-05
6.177750769e-05
6.320839813e-05
2.439550605e-05
1.741618891e-09
1.997631032e-09
2.550703132e-09
3.528409448e-09
5.151132240e-09
7.756288852e-09
1.184195479e-08
1.814926873e-08
2.784090166e-08
4.292707234e-08
6.739133035e-08
1.105312630e-07
1.941587539e-07
7.411793885e-07
4.360037965e-06
1.554715841e-05
3.732892327e-05
6.222474087e-05
6.279855424e-05
2.412661053e-05
2.012224109e-09
2.293752528e-09
2.897586395e-09
3.954538640e-09
5.689940068e-09
8.447620567e-09
1.273509402e-08
1.931054163e-08
2.937180871e-08
4.500812743e-08
7.039701342e-08
1.153483927e-07
2.014494909e-07
8.362539298e-07
4.687838916e-06
1.620932247e-05
3.812636651e-05
6.263942849e-05
6.239984148e-05
2.388611644e-05
2.306601343e-09
2.614239319e-09
3.269784161e-09
4.406999533e-09
6.255957126e-09
9.166814088e-09
1.365677744e-08
2.050182113e-08
3.093655545e-08
4.713283081e-08
7.347098325e-08
1.202894850e-07
2.082740979e-07
9.380259506e-07
5.023269102e-06
1.686616669e-05
3.889747106e-05
6.302457154e-05
6.201221019e-05
2.367034498e-05
2.624941528e-09
2.959201316e-09
3.667272678e-09
4.885632439e-09
6.848890154e-09
9.913534063e-09
1.460676099e-08
2.172307916e-08
3.253556625e-08
4.930242877e-08
7.661600226e-08
1.253576680e-07
2.143121300e-07
1.046549734e-06
5.366001045e-06
1.751767253e-05
3.964386478e-05
6.338273601e-05
6.163540339e-05
2.347633194e-05
2.967354468e-09
3.328685064e-09
4.089980744e-09
5.390238498e-09
7.468462100e-09
1.068749626e-08
1.558483008e-08
2.297434482e-08
3.416933273e-08
5.151822664e-08
7.983490760e-08
1.305553582e-07
2.190703861e-07
1.161870526e-06
5.715699018e-06
1.816385545e-05
4.036701633e-05
6.371634620e-05
6.126909559e-05
2.330145685e-05
3.333897556e-09
3.722679912e-09
4.537807393e-09
5.920617977e-09
8.114406614e-09
1.148841905e-08
1.659083737e-08
2.425574973e-08
3.583842423e-08
5.378168524e-08
8.313077947e-08
1.358839889e-07
2.217726104e-07
1.284024366e-06
6.072079153e-06
1.880478794e-05
4.106829800e-05
6.402739942e-05
6.091285248e-05
2.314342903e-05
3.724568764e-09
4.141135259e-09
5.010623075e-09
6.476557029e-09
8.786452923e-09
1.231607572e-08
1.762466731e-08
2.556738604e-08
3.754344592e-08
5.609427554e-08
8.650658795e-08
1.413437404e-07
2.212135383e-07
1.413037875e-06
6.434861340e-06
1.944054556e-05
4.174910478e-05
6.431783352e-05
6.056615650e-05
2.300017569e-05
4.139329374e-09
4.583969927e-09
5.508267268e-09
7.057836563e-09
9.484368396e-09
1.317027246e-08
1.868623651e-08
2.690951946e-08
3.928514221e-08
5.845761002e-08
8.996558028e-08
1.469331364e-07
2.167604066e-07
1.548934258e-06
6.803803486e-06
2.007124525e-05
4.241057237e-05
6.458927680e-05
6.022841582e-05
2.286990730e-05
4.578101571e-09
5.051070210e-09
6.030584518e-09
7.664251080e-09
1.020792885e-08
1.405081890e-08
1.977555653e-08
2.828236687e-08
4.106424544e-08
6.087342121e-08
9.351091611e-08
1.526481376e-07
2.405583220e-07
1.691724969e-06
7.178657498e-06
2.069698300e-05
4.305386912e-05
6.484321106e-05
5.989902291e-05
2.275096278e-05
5.040784041e-09
5.542301350e-09
6.577388627e-09
8.295589453e-09
1.095693208e-08
1.495759050e-08
2.089261485e-08
2.968628905e-08
4.288161148e-08
6.334340967e-08
9.714592156e-08
1.584819631e-07
2.755306659e-07
1.841423450e-06
7.559225807e-06
2.131788885e-05
4.368001242e-05
6.508100045e-05
5.957739985e-05
2.264190868e-05
5.527266895e-09
6.057529691e-09
7.148522114e-09
8.951653138e-09
1.173118769e-08
1.589048216e-08
2.203750628e-08
3.112160674e-08
4.473812416e-08
6.586942696e-08
1.008737963e-07
1.644234356e-07
3.140849175e-07
1.998030505e-06
7.945302945e-06
2.193411671e-05
4.429002169e-05
6.530379717e-05
5.926295098e-05
2.254145391e-05
6.037410095e-09
6.596595713e-09
7.743795603e-09
9.632272560e-09
1.253056333e-08
1.684942605e-08
2.321030744e-08
3.258876901e-08
4.663474362e-08
6.845353007e-08
1.046979683e-07
1.704561206e-07
3.562261529e-07
2.161543763e-06
8.336688049e-06
2.254581007e-05
4.488477810e-05
6.551268690e-05
5.895506264e-05
2.244840037e-05
6.571076986e-09
7.159355290e-09
8.363042576e-09
1.033726142e-08
1.335490240e-08
1.783439120e-08
2.441119979e-08
3.408822358e-08
4.857248807e-08
7.109762202e-08
1.086217593e-07
1.765559435e-07
4.020774847e-07
2.331958825e-06
8.733218191e-06
2.315305692e-05
4.546514421e-05
6.570860464e-05
5.865312251e-05
2.236173465e-05
7.128128534e-09
7.745648586e-09
9.006111426e-09
1.106648000e-08
1.420410634e-08
1.884537523e-08
2.564034425e-08
3.562050237e-08
5.055249106e-08
7.380392896e-08
1.126482376e-07
1.826893440e-07
4.517726391e-07
2.509268729e-06
9.134731842e-06
2.375603910e-05
4.603186072e-05
6.589234123e-05
5.835658439e-05
2.228052359e-05
7.708417955e-09
8.355330923e-09
9.672842847e-09
1.181978892e-08
1.507809712e-08
1.988239530e-08
2.689798501e-08
3.718617969e-08
5.257584508e-08
7.657458144e-08
1.167805319e-07
1.888087964e-07
5.054504516e-07
2.693456678e-06
9.541080707e-06
2.435488246e-05
4.658565039e-05
6.606471255e-05
5.806491966e-05
2.220391002e-05
8.311811167e-09
8.988266975e-09
1.036310728e-08
1.259708909e-08
1.597682924e-08
2.094553335e-08
2.818440205e-08
3.878585939e-08
5.464384068e-08
7.941186947e-08
1.210214963e-07
1.948475085e-07
5.632420949e-07
2.884507901e-06
9.952086237e-06
2.494968728e-05
4.712718630e-05
6.622640765e-05
5.777761626e-05
2.213117972e-05
8.938166839e-09
9.644313908e-09
1.107677968e-08
1.339825938e-08
1.690025247e-08
2.203487425e-08
2.949988335e-08
4.042020812e-08
5.675772167e-08
8.231823753e-08
1.253738411e-07
2.007127597e-07
6.252801688e-07
3.082398001e-06
1.036764962e-05
2.554060179e-05
4.765702942e-05
6.637792076e-05
5.749418088e-05
2.206160491e-05
9.587371439e-09
1.032335416e-08
1.181374221e-08
1.422324403e-08
1.784839409e-08
2.315056318e-08
3.084479875e-08
4.208997015e-08
5.891886070e-08
8.529601328e-08
1.298395515e-07
2.062725225e-07
6.916911560e-07
3.287106018e-06
1.078760754e-05
2.612772918e-05
4.817581540e-05
6.651989488e-05
5.721414477e-05
2.199460525e-05
1.025930204e-08
1.102528395e-08
1.257391052e-08
1.507199838e-08
1.882127964e-08
2.429275696e-08
3.221951392e-08
4.379588957e-08
6.112867141e-08
8.834781140e-08
1.344203824e-07
2.113390331e-07
7.625974939e-07
3.498613704e-06
1.121185169e-05
2.671121318e-05
4.868399671e-05
6.665280939e-05
5.693705454e-05
2.192966629e-05
1.095386178e-08
1.175000485e-08
1.335721834e-08
1.594448004e-08
1.981894223e-08
2.546164746e-08
3.362448337e-08
4.553878966e-08
6.338870930e-08
9.147619449e-08
1.391170995e-07
2.156397092e-07
8.381180479e-07
3.716874515e-06
1.164024299e-05
2.729109763e-05
4.918207029e-05
6.677697920e-05
5.666252111e-05
2.186628934e-05
1.167095429e-08
1.249743714e-08
1.416360040e-08
1.684070367e-08
2.084148536e-08
2.665745753e-08
3.506017281e-08
4.731955073e-08
6.570043461e-08
9.468383249e-08
1.439298223e-07
2.187736775e-07
9.183656362e-07
3.941868728e-06
1.207268804e-05
2.786754252e-05
4.967045756e-05
6.689287870e-05
5.639014858e-05
2.180404703e-05
1.241052281e-08
1.326752001e-08
1.499302694e-08
1.776066897e-08
2.188901717e-08
2.788047460e-08
3.652709841e-08
4.913910262e-08
6.806558608e-08
9.797338709e-08
1.488568966e-07
2.201460508e-07
1.003449610e-06
4.173550448e-06
1.250904896e-05
2.844061682e-05
5.014960275e-05
6.700076014e-05
5.611963199e-05
2.174253965e-05
1.317249828e-08
1.406021375e-08
1.584549391e-08
1.870441575e-08
2.296166038e-08
2.913098567e-08
3.802580048e-08
5.099839632e-08
7.048583916e-08
1.013475409e-07
1.538955435e-07
2.189118499e-07
1.093478223e-06
4.411893793e-06
1.294923458e-05
2.901040075e-05
5.061981709e-05
6.710101511e-05
5.585059611e-05
2.168142344e-05
1.395683896e-08
1.487549014e-08
1.672099416e-08
1.967203710e-08
2.405959135e-08
3.040930853e-08
3.955687033e-08
5.289847974e-08
7.296292621e-08
1.048091961e-07
1.590405942e-07
2.149184760e-07
1.188548746e-06
4.656846979e-06
1.339311346e-05
2.957694540e-05
5.108148731e-05
6.719384138e-05
5.558270259e-05
2.162036738e-05
1.476352657e-08
1.571332582e-08
1.761955269e-08
2.066359845e-08
2.518302892e-08
3.171582037e-08
4.112095112e-08
5.484044733e-08
7.549880875e-08
1.083609867e-07
1.642835151e-07
2.333522150e-07
1.288759544e-06
4.908377640e-06
1.384060605e-05
3.014036474e-05
5.153488645e-05
6.727946888e-05
5.531570773e-05
2.155907730e-05
1.559254687e-08
1.657376149e-08
1.854123544e-08
2.167922827e-08
2.633217067e-08
3.305092399e-08
4.271872683e-08
5.682543953e-08
7.809530802e-08
1.120056290e-07
1.696129253e-07
2.624685374e-07
1.394198055e-06
5.166431444e-06
1.429158438e-05
3.070072656e-05
5.198029946e-05
6.735812873e-05
5.504930699e-05
2.149734842e-05
1.644391759e-08
1.745680558e-08
1.948609784e-08
2.271905992e-08
2.750726858e-08
3.441502438e-08
4.435090646e-08
5.885468859e-08
8.075450473e-08
1.157457791e-07
1.750118591e-07
2.944328350e-07
1.504953641e-06
5.430965768e-06
1.474597327e-05
3.125802919e-05
5.241802504e-05
6.743004598e-05
5.478327437e-05
2.143491313e-05
1.731766814e-08
1.836252448e-08
2.045425415e-08
2.378326460e-08
2.870862808e-08
3.580861611e-08
4.601827661e-08
6.092942902e-08
8.347848398e-08
1.195839829e-07
1.804570138e-07
3.291863009e-07
1.621108525e-06
5.701922851e-06
1.520364634e-05
3.181237547e-05
5.284823852e-05
6.749523956e-05
5.451737139e-05
2.137162086e-05
1.821386366e-08
1.929097048e-08
2.144579719e-08
2.487202728e-08
2.993653447e-08
3.723219374e-08
4.772160745e-08
6.305094620e-08
8.626924720e-08
1.235225184e-07
1.859162029e-07
3.668237696e-07
1.742737786e-06
5.979260007e-06
1.566452000e-05
3.236376876e-05
5.327120602e-05
6.755398254e-05
5.425141101e-05
2.130731005e-05
1.913254992e-08
2.024225934e-08
2.246086441e-08
2.598557510e-08
3.119133245e-08
3.868629942e-08
4.946179463e-08
6.522068713e-08
8.912912778e-08
1.275636028e-07
1.913457267e-07
4.074624711e-07
1.869918222e-06
6.262906363e-06
1.612848771e-05
3.291227080e-05
5.368711658e-05
6.760629422e-05
5.398519756e-05
2.124183179e-05
2.007383532e-08
2.121648680e-08
2.349964623e-08
2.712413911e-08
3.247341994e-08
4.017150552e-08
5.123971794e-08
6.744004365e-08
9.206038758e-08
1.317088460e-07
1.966857639e-07
4.512226375e-07
2.002716941e-06
6.552826222e-06
1.659546918e-05
3.345794703e-05
5.409612186e-05
6.765232363e-05
5.371854994e-05
2.117505493e-05
2.103784295e-08
2.221379871e-08
2.456230577e-08
2.828798481e-08
3.378317139e-08
4.168839917e-08
5.305636649e-08
6.971055519e-08
9.506529910e-08
1.359595547e-07
2.018539364e-07
4.982255106e-07
2.141191804e-06
6.848938270e-06
1.706533856e-05
3.400074775e-05
5.449843214e-05
6.769213960e-05
5.345132374e-05
2.110682595e-05
2.202467882e-08
2.323436848e-08
2.564904100e-08
2.947742595e-08
3.512100825e-08
4.323767747e-08
5.491266451e-08
7.203378650e-08
9.814625072e-08
1.403164926e-07
2.067367039e-07
5.485940435e-07
2.285409028e-06
7.151196089e-06
1.753802584e-05
3.454076810e-05
5.489410712e-05
6.772581657e-05
5.318332373e-05
2.103705104e-05
2.303451487e-08
2.427833144e-08
2.676011179e-08
3.069277796e-08
3.648742931e-08
4.481998921e-08
5.680971660e-08
7.441138196e-08
1.013056206e-07
1.447794610e-07
2.111752066e-07
6.024480919e-07
2.435416885e-06
7.459527868e-06
1.801341897e-05
3.507797162e-05
5.528337151e-05
6.775340070e-05
5.291443291e-05
2.096561118e-05
2.406752674e-08
2.534594450e-08
2.789576955e-08
3.193438284e-08
3.788292641e-08
4.643606771e-08
5.874861875e-08
7.684501785e-08
1.045458155e-07
1.493473771e-07
2.149454323e-07
6.599060620e-07
2.591266486e-06
7.773867779e-06
1.849142864e-05
3.561238994e-05
5.566625321e-05
6.777496463e-05
5.264452400e-05
2.089243881e-05
2.512389659e-08
2.643738755e-08
2.905629177e-08
3.320262325e-08
3.930800348e-08
4.808670643e-08
6.073048177e-08
7.933648682e-08
1.078693887e-07
1.540177535e-07
2.177263287e-07
7.210868097e-07
2.753007792e-06
8.094163958e-06
1.897196424e-05
3.614406087e-05
5.604296808e-05
6.779053266e-05
5.237344929e-05
2.081745409e-05
2.620386573e-08
2.755293727e-08
3.024197444e-08
3.449790327e-08
4.076323187e-08
4.977268684e-08
6.275657794e-08
8.188757696e-08
1.112786417e-07
1.587863945e-07
2.190557147e-07
7.861035671e-07
2.920678103e-06
8.420322492e-06
1.945492197e-05
3.667292613e-05
5.641354199e-05
6.780013970e-05
5.210112504e-05
2.074064410e-05
2.730767460e-08
2.869284841e-08
3.145318764e-08
3.582067789e-08
4.224920406e-08
5.149484963e-08
6.482813418e-08
8.450018121e-08
1.147759186e-07
1.636467114e-07
2.182898749e-07
8.550690276e-07
3.094314925e-06
8.752276562e-06
1.994020401e-05
3.719904115e-05
5.677805848e-05
6.780378925e-05
5.182748059e-05
2.066195771e-05
2.843556272e-08
2.985744121e-08
3.269024042e-08
3.717137981e-08
4.376659698e-08
5.325411443e-08
6.694643774e-08
8.717628550e-08
1.183636295e-07
1.685894320e-07
2.148680964e-07
9.280947473e-07
3.273946521e-06
9.089975668e-06
2.042773349e-05
3.772237416e-05
5.713662757e-05
6.780152304e-05
5.155242159e-05
2.058136141e-05
2.958784376e-08
3.104700520e-08
3.395356411e-08
3.855051465e-08
4.531601402e-08
5.505140076e-08
6.911287719e-08
8.991789356e-08
1.220438615e-07
1.736015583e-07
2.232333607e-07
1.005286944e-06
3.459608434e-06
9.433312074e-06
2.091741231e-05
3.824290742e-05
5.748925719e-05
6.779331458e-05
5.127589527e-05
2.049885755e-05
3.076484571e-08