/*--------------------------------*- C++ -*----------------------------------*\
| =========                 |                                                 |
| \\      /  F ield         | OpenFOAM: The Open Source CFD Toolbox           |
|  \\    /   O peration     | Version:  5.x                                   |
|   \\  /    A nd           | Web:      www.OpenFOAM.org                      |
|    \\/     M anipulation  |                                                 |
\*---------------------------------------------------------------------------*/
FoamFile
{
    version     2.0;
    format      ascii;
    class       volScalarField;
    location    "3.5";
    object       H2;
}
// * * * * * * * * * * * * * * * * * * * * * * * * * * * * * * * * * * * * * //

dimensions      [0 0 0 0 0 0 0];

internalField   nonuniform List<scalar>
51080
(
0.000000000e+00
0.000000000e+00
0.000000000e+00
0.000000000e+00
0.000000000e+00
0.000000000e+00
0.000000000e+00
0.000000000e+00
0.000000000e+00
0.000000000e+00
7.774389826e-07
1.037513739e-06
1.393407396e-06
1.999219067e-06
3.168091423e-06
5.582026886e-06
1.122762353e-05
2.748157337e-05
9.590056104e-05
6.509165843e-04
0.000000000e+00
0.000000000e+00
0.000000000e+00
0.000000000e+00
0.000000000e+00
0.000000000e+00
0.000000000e+00
0.000000000e+00
6.569364688e-07
8.372697844e-07
1.121511865e-06
1.514403223e-06
2.197293556e-06
3.555110286e-06
6.371310956e-06
1.303204087e-05
3.229025892e-05
1.072909620e-04
5.516874312e-04
3.187399558e-03
0.000000000e+00
0.000000000e+00
0.000000000e+00
0.000000000e+00
0.000000000e+00
0.000000000e+00
0.000000000e+00
7.039684959e-07
8.958301688e-07
1.202519771e-06
1.627430068e-06
2.360183007e-06
3.810777538e-06
6.765080500e-06
1.355822924e-05
3.234580434e-05
9.920434821e-05
4.269035062e-04
2.125841259e-03
6.834877108e-03
0.000000000e+00
0.000000000e+00
0.000000000e+00
0.000000000e+00
0.000000000e+00
6.240473857e-07
7.533829211e-07
9.480475761e-07
1.247782170e-06
1.719496715e-06
2.473262807e-06
3.959418108e-06
6.912878557e-06
1.341740464e-05
3.058122256e-05
8.643268173e-05
3.254684000e-04
1.468427153e-03
4.939560090e-03
1.058148258e-02
0.000000000e+00
0.000000000e+00
0.000000000e+00
0.000000000e+00
6.804222985e-07
8.136846582e-07
1.015799426e-06
1.329965273e-06
1.836930153e-06
2.563008195e-06
4.034322163e-06
6.880926165e-06
1.289824918e-05
2.801976309e-05
7.337776651e-05
2.464420134e-04
1.015584829e-03
3.563166880e-03
8.232010237e-03
1.401211622e-02
0.000000000e+00
6.126638286e-07
6.654551161e-07
7.519456775e-07
8.857596844e-07
1.091021912e-06
1.410784360e-06
1.924869604e-06
2.651643134e-06
4.058900384e-06
6.729468209e-06
1.216376048e-05
2.518439633e-05
6.142706884e-05
1.862928258e-04
6.995207865e-04
2.516687231e-03
6.320144590e-03
1.146492558e-02
1.699486095e-02
7.323327897e-07
7.702152239e-07
8.478029141e-07
9.764877353e-07
1.179019560e-06
1.496712699e-06
2.005789516e-06
2.715022078e-06
4.043530883e-06
6.498232443e-06
1.131956051e-05
2.234375805e-05
5.097721335e-05
1.408426551e-04
4.803265060e-04
1.725982857e-03
4.721939788e-03
9.227200734e-03
1.440744252e-02
1.949499483e-02
9.298331102e-07
9.849936433e-07
1.098872631e-06
1.290201998e-06
1.596789866e-06
2.089148594e-06
2.765237285e-06
3.992870442e-06
6.218019322e-06
1.043913858e-05
1.965405443e-05
4.208938358e-05
1.066804426e-04
3.300000526e-04
1.149065629e-03
3.394833775e-03
7.233253130e-03
1.199804711e-02
1.697876375e-02
2.151033157e-02
1.196361538e-06
1.276332558e-06
1.442801335e-06
1.726223412e-06
2.188795851e-06
2.813815706e-06
3.912365204e-06
5.879373266e-06
9.630694169e-06
1.723950620e-05
3.471069913e-05
8.115270423e-05
2.279003676e-04
7.478572004e-04
2.330433995e-03
5.466451784e-03
9.748993789e-03
1.450878395e-02
1.916202522e-02
2.305939684e-02
1.553720020e-06
1.668722476e-06
1.910332408e-06
2.327508564e-06
2.886770047e-06
3.851468988e-06
5.588057397e-06
8.798612189e-06
1.508329183e-05
2.866474585e-05
6.215240095e-05
1.589583027e-04
4.816458394e-04
1.525417669e-03
3.941076656e-03
7.665424762e-03
1.211223643e-02
1.671713084e-02
2.096469478e-02
2.354007092e-02
2.030051670e-06
2.191241668e-06
2.536266666e-06
3.007790733e-06
3.838413620e-06
5.355065505e-06
8.079362880e-06
1.321437801e-05
2.376380288e-05
4.803340716e-05
1.124397842e-04
3.110913009e-04
9.601367269e-04
2.686744604e-03
5.774873697e-03
9.815401555e-03
1.425496964e-02
1.861877803e-02
2.240428640e-02
1.951342419e-02
2.692331486e-06
2.872936533e-06
3.210953092e-06
3.906900636e-06
5.232064945e-06
7.517975115e-06
1.169424036e-05
1.988562808e-05
3.759111122e-05
8.096705652e-05
2.038259481e-04
5.916115889e-04
1.727632125e-03
4.123216233e-03
7.656697555e-03
1.182566320e-02
1.615582278e-02
2.022576609e-02
2.355920711e-02
1.605729308e-02
3.273876918e-06
3.529529199e-06
4.123195036e-06
5.230955187e-06
7.142308577e-06
1.053330882e-05
1.691331659e-05
2.994435349e-05
5.960574354e-05
1.367050018e-04
3.647775630e-04
1.058076824e-03
2.764176969e-03
5.690218313e-03
9.479198997e-03
1.365692058e-02
1.781660990e-02
2.155647553e-02
2.272971664e-02
1.313637371e-02
4.134047617e-06
4.547159612e-06
5.430376708e-06
6.993255922e-06
9.736746053e-06
1.472835922e-05
2.442626456e-05
4.507681091e-05
9.452028128e-05
2.294692180e-04
6.317711470e-04
1.737118791e-03
3.983414724e-03
7.275916404e-03
1.118630678e-02
1.529803385e-02
1.924995695e-02
2.263628537e-02
1.958093558e-02
1.069097519e-02
5.392781676e-06
5.949355001e-06
7.153026928e-06
9.335192024e-06
1.324567410e-05
2.054656755e-05
3.520968410e-05
6.775871162e-05
1.493533972e-04
3.787832088e-04
1.037600147e-03
2.604520698e-03
5.289510228e-03
8.811064440e-03
1.275332474e-02
1.675257456e-02
2.047290319e-02
2.353904344e-02
1.684838238e-02
8.659948400e-03
7.005517019e-06
7.758306983e-06
9.402685466e-06
1.243291020e-05
1.797318954e-05
2.858943939e-05
5.063199541e-05
1.015359316e-04
2.338938395e-04
6.070833981e-04
1.594237086e-03
3.602222420e-03
6.608784302e-03
1.025807396e-02
1.417347131e-02
1.803139264e-02
2.150411495e-02
2.353805800e-02
1.449758936e-02
6.986637386e-03
9.070575467e-06
1.008705905e-05
1.232704618e-05
1.651394946e-05
2.432001537e-05
3.966879349e-05
7.258153047e-05
1.512953533e-04
3.604759055e-04
9.332883144e-04
2.285653978e-03
4.667875128e-03
7.893667266e-03
1.159950602e-02
1.544977496e-02
1.914846732e-02
2.236448202e-02
2.104722312e-02
1.248471370e-02
5.619694220e-03
1.171016362e-05
1.307765846e-05
1.611611765e-05
2.187285311e-05
3.281286483e-05
5.487070034e-05
1.036051355e-04
2.233992197e-04
5.425567062e-04
1.364960887e-03
3.076727340e-03
5.751472316e-03
9.116728574e-03
1.282996137e-02
1.659036487e-02
2.011873395e-02
2.308522603e-02
1.884740989e-02
1.076635385e-02
4.512599800e-03
1.507754329e-05
1.690955446e-05
2.101282783e-05
2.888996931e-05
4.414035316e-05
7.562849623e-05
1.470268517e-04
3.254832029e-04
7.917381674e-04
1.894849466e-03
3.927897584e-03
6.818542209e-03
1.026404666e-02
1.395096406e-02
1.760570949e-02
2.095701898e-02
2.375640855e-02
1.691712176e-02
9.302696628e-03
3.623187286e-03
1.936563999e-05
2.180975576e-05
2.732690773e-05
3.805445775e-05
5.919503453e-05
1.037971311e-04
2.069926813e-04
4.657611592e-04
1.114175820e-03
2.504121819e-03
4.804911309e-03
7.847571203e-03
1.133023179e-02
1.496784113e-02
1.850707544e-02
2.167782513e-02
2.364491962e-02
1.522797488e-02
8.058274793e-03
2.913608436e-03
2.481746339e-05
2.806524654e-05
3.545217813e-05
4.999183674e-05
7.911983999e-05
1.417144686e-04
2.883645371e-04
6.517865052e-04
1.508525406e-03
3.169081022e-03
5.682062910e-03
8.826360759e-03
1.231505681e-02
1.588781180e-02
1.930564625e-02
2.229585999e-02
2.185182533e-02
1.375132914e-02
7.001851007e-03
2.350618933e-03
3.173887549e-05
3.603806401e-05
4.588711059e-05
6.549529734e-05
1.053541204e-04
1.922237968e-04
3.963982444e-04
8.887519098e-04
1.966468777e-03
3.866895953e-03
6.541745589e-03
9.748991898e-03
1.322132744e-02
1.671885849e-02
2.001208300e-02
2.282801992e-02
2.024379520e-02
1.246047965e-02
6.106072444e-03
1.905819864e-03
4.051376636e-05
4.618318795e-05
5.925882410e-05
8.555924980e-05
1.396709519e-04
2.586262180e-04
5.362455426e-04
1.178260579e-03
2.475280757e-03
4.578562181e-03
7.372768844e-03
1.061357525e-02
1.405348675e-02
1.746906446e-02
2.063631626e-02
2.329926333e-02
1.880666234e-02
1.133142969e-02
5.347076019e-03
1.555609724e-03
5.162196065e-05
5.906927294e-05
7.634928848e-05
1.114118558e-04
1.841926840e-04
3.445314294e-04
7.121429748e-04
1.517964992e-03
3.020834464e-03
5.289664016e-03
8.168604444e-03
1.142076501e-02
1.481678270e-02
1.814623632e-02
2.118752221e-02
2.376586836e-02
1.752338766e-02
1.034294858e-02
4.704129112e-03
1.280725721e-03
6.565931726e-05
7.540127944e-05
9.812216823e-05
1.445400176e-04
2.413684102e-04
4.536241196e-04
9.266845704e-04
1.902213680e-03
3.589834366e-03
5.989941404e-03
8.925958628e-03
1.217271821e-02
1.551673086e-02
1.875769441e-02
2.167418730e-02
2.423920320e-02
1.637715226e-02
9.476458582e-03
4.159298082e-03
1.065531466e-03
8.335950556e-05
9.604405120e-05
1.257470415e-04
1.866994668e-04
3.138960644e-04
5.893021280e-04
1.180365263e-03
2.323311496e-03
4.170979010e-03
6.672509264e-03
9.643710185e-03
1.287243662e-02
1.615880542e-02
1.931018838e-02
2.210429365e-02
2.302448037e-02
1.535228100e-02
8.715785547e-03
3.697192031e-03
8.972907832e-04
1.056155272e-04
1.220437103e-04
1.606155723e-04
2.398987524e-04
4.045879236e-04
7.542117302e-04
1.471532968e-03
2.772840816e-03
4.755300603e-03
7.333021810e-03
1.032215356e-02
1.352335367e-02
1.674824039e-02
1.980986084e-02
2.248561682e-02
2.190442587e-02
1.443455932e-02
8.046883497e-03
3.304668073e-03
7.656174626e-04
1.334985995e-04
1.546437760e-04
2.043434982e-04
3.063458462e-04
5.162007495e-04
9.499072510e-04
1.796736794e-03
3.242677588e-03
5.336021688e-03
7.968991040e-03
1.096246991e-02
1.412902926e-02
1.728994337e-02
2.026226908e-02
2.282623968e-02
2.088242306e-02
1.361130092e-02
7.457578751e-03
2.970591260e-03
6.621360188e-04
1.682696255e-04
1.952896395e-04
2.587497997e-04
3.883572816e-04
6.511275899e-04
1.176641437e-03
2.151323247e-03
3.725593934e-03
5.908230003e-03
8.579227066e-03
1.156638244e-02
1.469299894e-02
1.778843309e-02
2.067241788e-02
2.313554237e-02
1.994972999e-02
1.287127751e-02
6.937343318e-03
2.685576619e-03
5.802461018e-04
2.113794032e-04
2.456160472e-04
3.258056856e-04
4.882518820e-04
8.111560934e-04
1.433358449e-03
2.530072992e-03
4.215511355e-03
6.468505609e-03
9.163446850e-03
1.213588621e-02
1.521866243e-02
1.824784445e-02
2.104479884e-02
2.342639820e-02
1.909767687e-02
1.220461063e-02
6.477072714e-03
2.441752327e-03
5.148673124e-04
2.644493970e-04
3.074101066e-04
4.075609817e-04
6.081315790e-04
9.972692481e-04
1.717878293e-03
2.927732423e-03
4.707518758e-03
7.014574693e-03
9.721981254e-03
1.267311932e-02
1.570922139e-02
1.867193009e-02
2.138346144e-02
2.372110632e-02
1.831811685e-02
1.160264306e-02
6.068907605e-03
2.232550900e-03
4.621633589e-04
3.292305827e-04
3.825496740e-04
5.060473983e-04
7.496979967e-04
1.209538461e-03
2.027201906e-03
3.339383018e-03
5.197773447e-03
7.545031440e-03
1.025554910e-02
1.318023162e-02
1.616765904e-02
1.906406645e-02
2.169205356e-02
2.407091067e-02
1.760359907e-02
1.105778703e-02
5.706061793e-03
2.052487559e-03
4.192582023e-04
4.075441783e-04
4.729385065e-04
6.230926983e-04
9.140934184e-04
1.447141375e-03
2.357859164e-03
3.760641425e-03
5.683348012e-03
8.059098555e-03
1.076512280e-02
1.365932592e-02
1.659671969e-02
1.942729735e-02
2.197389857e-02
2.407309849e-02
1.694736118e-02
1.056340233e-02
5.382669315e-03
1.896993956e-03
3.839977912e-04
5.012042921e-04
5.803511594e-04
7.601834114e-04
1.101787764e-03
1.708476047e-03
2.706216016e-03
4.187745573e-03
6.162062596e-03
8.556468980e-03
1.125181369e-02
1.411242126e-02
1.699891675e-02
1.976434563e-02
2.223205652e-02
2.334480656e-02
1.634334303e-02
1.011368034e-02
5.093669862e-03
1.762262300e-03
3.547630741e-04
6.118652317e-04
7.063035851e-04
9.183349745e-04
1.312543192e-03
1.991352863e-03
3.068717467e-03
4.617560073e-03
6.632340841e-03
9.037157755e-03
1.171679375e-02
1.454141129e-02
1.737654073e-02
2.007766094e-02
2.246939843e-02
2.266066542e-02
1.578613010e-02
9.703537318e-03
4.834703917e-03
1.645128266e-03
3.303326367e-04
7.409098556e-04
8.519353567e-04
1.098000597e-03
1.545456514e-03
2.293207662e-03
3.442053708e-03
5.047516132e-03
7.093086638e-03
9.501408651e-03
1.216126842e-02
1.494808263e-02
1.773166723e-02
2.036943189e-02
2.268869240e-02
2.202019813e-02
1.527089796e-02
9.328525749e-03
4.602003067e-03
1.542948329e-03
3.097739362e-04
8.893385429e-04
1.017911990e-03
1.299037842e-03
1.799062732e-03
2.611305640e-03
3.823240140e-03
5.475552876e-03
7.543566793e-03
9.949625924e-03
1.258641430e-02
1.533408075e-02
1.806617354e-02
2.064162656e-02
2.289272878e-02
2.142000281e-02
1.479334603e-02
8.984731437e-03
4.392286419e-03
1.453484778e-03
2.923496617e-04
1.057689112e-03
1.204370885e-03
1.520736233e-03
2.071482716e-03
2.942903056e-03
4.209670589e-03
5.900045102e-03
7.983329445e-03
1.038231276e-02
1.299337462e-02
1.570092153e-02
1.838175907e-02
2.089599839e-02
2.308447926e-02
2.085670127e-02
1.434966397e-02
8.668733275e-03
4.202739308e-03
1.374883899e-03
2.774953569e-04
1.245993641e-03
1.410920771e-03
1.761896712e-03
2.360572827e-03
3.285374291e-03
4.599095854e-03
6.319721542e-03
8.412141815e-03
1.080003588e-02
1.338325055e-02
1.605001032e-02
1.867995959e-02
2.113413226e-02
2.326736630e-02
2.032712227e-02
1.393647178e-02
8.377527335e-03
4.030925492e-03
1.305589336e-03
2.647708426e-04
1.453786699e-03
1.636689129e-03
2.020940852e-03
2.664069348e-03
3.636284007e-03
4.989625847e-03
6.733617751e-03
8.829923994e-03
1.120338946e-02
1.375707087e-02
1.638262115e-02
1.896216212e-02
2.135745359e-02
2.344572997e-02
1.982836114e-02
1.355076189e-02
8.108474698e-03
3.874732179e-03
1.244289943e-03
2.538205771e-04
1.680161575e-03
1.880404293e-03
2.296035171e-03
2.979707443e-03
3.993434558e-03
5.379681006e-03
7.141005350e-03
9.236729654e-03
1.159298999e-02
1.411581216e-02
1.669993002e-02
1.922961327e-02
2.156725086e-02
2.362573290e-02
1.935776024e-02
1.318986446e-02
7.859249344e-03
3.732325293e-03
1.189882165e-03
2.443627595e-04
1.923844259e-03
2.140500717e-03
2.585211415e-03
3.305303238e-03
4.354880032e-03
5.767957209e-03
7.541350428e-03
9.632687195e-03
1.196945238e-02
1.446038505e-02
1.700300926e-02
1.948344624e-02
2.176469701e-02
2.381724505e-02
1.891288837e-02
1.285138727e-02
7.627780387e-03
3.602081903e-03
1.141395376e-03
2.361502737e-04
2.183300100e-03
2.415226724e-03
2.886460390e-03
3.638816071e-03
4.718927211e-03
6.153394131e-03
7.934284518e-03
1.001799417e-02
1.233336523e-02
1.479164151e-02
1.729283247e-02
1.972467987e-02
2.195086444e-02
2.403791867e-02
1.849157310e-02
1.253322663e-02
7.412260806e-03
3.482615850e-03
1.098030971e-03
2.289920626e-04
2.456827662e-03
2.702739136e-03
3.197823385e-03
3.978381464e-03
5.084114388e-03
6.535135545e-03
8.319553859e-03
1.039289300e-02
1.268531802e-02
1.511036526e-02
1.757029605e-02
1.995423668e-02
2.212674164e-02
2.430537170e-02
1.809182417e-02
1.223350015e-02
7.211102293e-03
3.372726694e-03
1.059129245e-03
2.227446661e-04
2.742650719e-03
3.001190609e-03
3.517434319e-03
4.322326399e-03
5.449200660e-03
6.912493167e-03
8.697009757e-03
1.075765435e-02
1.302586933e-02
1.541729206e-02
1.783621275e-02
2.017295205e-02
2.229325702e-02
2.397133917e-02
1.771185852e-02
1.195052901e-02
7.022888029e-03
3.271357157e-03
1.024109255e-03
2.172755818e-04
3.038995828e-03
3.308785808e-03
3.843565904e-03
4.669168485e-03
5.813132990e-03
7.284931905e-03
9.066585402e-03
1.111257098e-02
1.335555472e-02
1.571310308e-02
1.809132999e-02
2.038158297e-02
2.245128242e-02
2.352733927e-02
1.735006489e-02
1.168281813e-02
6.846361294e-03
3.177577855e-03
9.924726239e-04
2.124743936e-04
3.344141197e-03
3.623832594e-03
4.174643509e-03
5.017615374e-03
6.175035901e-03
7.652034782e-03
9.428269082e-03
1.145794382e-02
1.367488288e-02
1.599842260e-02
1.833632659e-02
2.058081834e-02
2.260167413e-02
2.309903098e-02
1.700496551e-02
1.142901795e-02
6.680401931e-03
3.090572800e-03
9.637909540e-04
2.082488589e-04
3.656466019e-03
3.944761802e-03
4.509259592e-03
5.366544356e-03
6.534178069e-03
8.013481170e-03
9.782101249e-03
1.179407539e-02
1.398433065e-02
1.627383447e-02
1.857182232e-02
2.077128722e-02
2.274527358e-02
2.268669849e-02
1.667525202e-02
1.118793013e-02
6.524026026e-03
3.009631720e-03
9.377018823e-04
2.045227893e-04
3.974469780e-03
4.270146907e-03
4.846156412e-03
5.714993047e-03
6.889960866e-03
8.369036364e-03
1.012815684e-02
1.212127806e-02
1.428436419e-02
1.653988039e-02
1.879838975e-02
2.095355649e-02
2.288295109e-02
2.228954419e-02
1.635971980e-02
1.095848062e-02
6.376349112e-03
2.934130689e-03
9.138930591e-04
2.012286104e-04
4.296784333e-03
4.598706520e-03
5.184240255e-03
6.062136851e-03
7.241894733e-03
8.718539286e-03
1.046654396e-02
1.243985100e-02
1.457540778e-02
1.679705239e-02
1.901654963e-02
2.112815551e-02
2.301562800e-02
2.190665609e-02
1.605728119e-02
1.073968743e-02
6.236561031e-03
2.863490391e-03
8.920776882e-04
1.983168551e-04
4.622176810e-03
4.929302621e-03
5.522549797e-03
6.407284748e-03
7.589583659e-03
9.061877506e-03
1.079738825e-02
1.275009534e-02
1.485786541e-02
1.704581479e-02
1.922678377e-02
2.129556345e-02
2.314434376e-02
2.153715991e-02
1.576695634e-02
1.053068147e-02
6.103958192e-03
2.797213173e-03
8.720041467e-04
1.957173358e-04
4.949553889e-03
5.260930727e-03
5.860265257e-03
6.749847490e-03
7.932709867e-03
9.398989915e-03
1.112083055e-02
1.305229551e-02
1.513212321e-02
1.728659786e-02
1.942952303e-02
2.145622481e-02
2.327030770e-02
2.118023365e-02
1.548786591e-02
1.033069213e-02
5.977934228e-03
2.734893850e-03
8.534952561e-04
1.934095963e-04
5.277950067e-03
5.592716904e-03
6.196670611e-03
7.089342952e-03
8.271027191e-03
9.729851926e-03
1.143702728e-02
1.334673462e-02
1.539853609e-02
1.751979521e-02
1.962518078e-02
2.161054761e-02
2.339502993e-02
2.083510656e-02
1.521920286e-02
1.013902120e-02
5.857922315e-03
2.676151496e-03
8.363756107e-04
1.913561872e-04
5.606519141e-03
5.923898905e-03
6.531164590e-03
7.425359696e-03
8.604348885e-03
1.005446950e-02
1.174613731e-02
1.363368382e-02
1.565744303e-02
1.774577633e-02
1.981412482e-02
2.175891547e-02
2.352048776e-02
2.050106693e-02
1.496024059e-02
9.955023915e-03
5.743418794e-03
2.620641505e-03
8.204832989e-04
1.895221830e-04
5.934526462e-03
6.253820755e-03
6.863231753e-03
7.757572767e-03
8.932529427e-03
1.037287012e-02
1.204833106e-02
1.391340392e-02
1.590916230e-02
1.796488302e-02
1.999669870e-02
2.190168927e-02
2.364943594e-02
2.017744355e-02
1.471029954e-02
9.778130170e-03
5.633965753e-03
2.568057464e-03
8.056791456e-04
1.878799404e-04
6.261330585e-03
6.581921510e-03
7.192437564e-03
8.085707278e-03
9.255471275e-03
1.068511083e-02
1.234377496e-02
1.418614529e-02
1.615399197e-02
1.817743009e-02
2.017321716e-02
2.203921117e-02
2.378595055e-02
1.986362783e-02
1.446878174e-02
9.607815575e-03
5.529151974e-03
2.518128299e-03
7.918438550e-04
1.864053925e-04
6.586389722e-03
6.907720051e-03
7.518423716e-03
8.409551391e-03
9.573111380e-03
1.099125282e-02
1.263264308e-02
1.445215651e-02
1.639221403e-02
1.838371814e-02
2.034398002e-02
2.217180729e-02
2.393636718e-02
1.955904855e-02
1.423513012e-02
9.443604923e-03
5.428612354e-03
2.470614209e-03
7.788717371e-04
1.850776576e-04
6.909233830e-03
7.230811256e-03
7.840892343e-03
8.728935012e-03
9.885407028e-03
1.129138015e-02
1.291510448e-02
1.471165576e-02
1.662408880e-02
1.858401808e-02
2.050925452e-02
2.229979705e-02
2.411057772e-02
1.926318420e-02
1.400883282e-02
9.285070984e-03
5.332009235e-03
2.425297774e-03
7.666699284e-04
1.838781608e-04
7.229467734e-03
7.550856450e-03
8.159591306e-03
9.043725613e-03
1.019235028e-02
1.158558564e-02
1.319132308e-02
1.496487644e-02
1.684987178e-02
1.877858845e-02
2.066929868e-02
2.242349616e-02
2.430762151e-02
1.897554573e-02
1.378943280e-02
9.131824169e-03
5.239046657e-03
2.381987771e-03
7.551578816e-04
1.827908313e-04
7.546753151e-03
7.867568171e-03
8.474327384e-03
9.353830794e-03
1.049394820e-02
1.187395971e-02
1.346147443e-02
1.521202050e-02
1.706979223e-02
1.896767363e-02
2.082434615e-02
2.254321632e-02
2.408830637e-02
1.869568378e-02
1.357650731e-02
8.983507526e-03
5.149449519e-03
2.340510634e-03
7.442623382e-04
1.818010300e-04
7.860808261e-03
8.180707487e-03
8.784932835e-03
9.659179839e-03
1.079022486e-02
1.215661052e-02
1.372571321e-02
1.545329916e-02
1.728407483e-02
1.915149119e-02
2.097461973e-02
2.265928618e-02
2.375964212e-02
1.842318247e-02
1.336966275e-02
8.839801609e-03
5.062974726e-03
2.300711872e-03
7.339202125e-04
1.808961188e-04
8.171405203e-03
8.490086924e-03
9.091292997e-03
9.959728397e-03
1.108121416e-02
1.243364452e-02
1.398420695e-02
1.568889667e-02
1.749292637e-02
1.933025074e-02
2.112032197e-02
2.277204479e-02
2.343565010e-02
1.815765688e-02
1.316854497e-02
8.700405658e-03
4.979397461e-03
2.262452453e-03
7.240747604e-04
1.800647409e-04
8.478346040e-03
8.795544930e-03
9.393304152e-03
1.025546037e-02
1.136697478e-02
1.270517337e-02
1.423710441e-02
1.591900306e-02
1.769654277e-02
1.950415765e-02
2.126165373e-02
2.288186426e-02
2.311813823e-02
1.789875068e-02
1.297282867e-02
8.565051281e-03
4.898515538e-03
2.225606143e-03
7.146759870e-04
1.792965299e-04
8.781476585e-03
9.096963208e-03
9.690898442e-03
1.054636270e-02
1.164755587e-02
1.297131062e-02
1.448456583e-02
1.614379129e-02
1.789510990e-02
1.967338627e-02
2.139880111e-02
2.298915462e-02
2.280720259e-02
1.764613377e-02
1.278220894e-02
8.433493451e-03
4.820142771e-03
2.190060537e-03
7.056783896e-04
1.785826666e-04
9.080674403e-03
9.394241947e-03
9.984033216e-03
1.083245074e-02
1.192302632e-02
1.323216955e-02
1.472673241e-02
1.636343154e-02
1.808880781e-02
1.983811792e-02
2.153193366e-02
2.309439601e-02
2.250270368e-02
1.739949286e-02
1.259640751e-02
8.305504672e-03
4.744114875e-03
2.155714892e-03
6.970425145e-04
1.779150871e-04
9.375839900e-03
9.687311969e-03
1.027267547e-02
1.111374437e-02
1.219345891e-02
1.348786006e-02
1.496375084e-02
1.657808583e-02
1.827779498e-02
1.999851033e-02
2.166122132e-02
2.319815377e-02
2.220443624e-02
1.715854376e-02
1.241516643e-02
8.180874674e-03
4.670274881e-03
2.122476002e-03
6.887321681e-04
1.772864540e-04
9.666901864e-03
9.976125431e-03
1.055681668e-02
1.139028192e-02
1.245893289e-02
1.373849997e-02
1.519576215e-02
1.678790471e-02
1.846223634e-02
2.015471720e-02
2.178682591e-02
2.330111645e-02
2.191219560e-02
1.692301881e-02
1.223825659e-02
8.059416038e-03
4.598484998e-03
2.090260503e-03
6.807167518e-04
1.766906185e-04
9.953803480e-03
1.026064491e-02
1.083645754e-02
1.166209505e-02
1.271952131e-02
1.398419870e-02
1.542289681e-02
1.699303526e-02
1.864227572e-02
2.030688877e-02
2.190890826e-02
2.340417318e-02
2.162576637e-02
1.669267052e-02
1.206545258e-02
7.940951840e-03
4.528617607e-03
2.058993684e-03
6.729674408e-04
1.761214093e-04
1.023651424e-02
1.054085515e-02
1.111160743e-02
1.192923844e-02
1.297531547e-02
1.422507042e-02
1.564528873e-02
1.719362064e-02
1.881805581e-02
2.045515436e-02
2.202761570e-02
2.350847713e-02
2.134494021e-02
1.646726699e-02
1.189655220e-02
7.825321192e-03
4.460554116e-03
2.028606226e-03
6.654584065e-04
1.755738590e-04
1.051501004e-02
1.081675424e-02
1.138229204e-02
1.219176882e-02
1.322639914e-02
1.446122296e-02
1.586305992e-02
1.738979192e-02
1.898970894e-02
2.059964975e-02
2.214310636e-02
2.361560888e-02
2.106952526e-02
1.624658756e-02
1.173136829e-02
7.712369762e-03
4.394188458e-03
1.999036210e-03
6.581672954e-04
1.750435814e-04
1.078928637e-02
1.108834774e-02
1.164854527e-02
1.244974088e-02
1.347285270e-02
1.469276328e-02
1.607633631e-02
1.758167645e-02
1.915736761e-02
2.074049593e-02
2.225552856e-02
2.372779212e-02
2.079932754e-02
1.603043626e-02
1.156972563e-02
7.601968085e-03
4.329422607e-03
1.970228859e-03
6.510734931e-04
1.745264060e-04
1.105934432e-02
1.135565278e-02
1.191040180e-02
1.270322372e-02
1.371476827e-02
1.491979571e-02
1.628523433e-02
1.776939856e-02
1.932114344e-02
2.087781262e-02
2.236504594e-02
2.384828124e-02
2.053416686e-02
1.581862202e-02
1.141146289e-02
7.493981460e-03
4.266168507e-03
1.942131718e-03
6.441590598e-04
1.740186973e-04
1.132520431e-02
1.161869515e-02
1.216790789e-02
1.295227818e-02
1.395223266e-02
1.514242835e-02
1.648986837e-02
1.795307514e-02
1.948115945e-02
2.101170874e-02
2.247181308e-02
2.398193862e-02
2.027387397e-02
1.561096833e-02
1.125642658e-02
7.388295958e-03
4.204338128e-03
1.914700047e-03
6.374082243e-04
1.735170849e-04
1.158688433e-02
1.187750936e-02
1.242111575e-02
1.319697278e-02
1.418532855e-02
1.536076055e-02
1.669034651e-02
1.813281555e-02
1.963752171e-02
2.114229006e-02
2.257600783e-02
2.413568417e-02
2.001827703e-02
1.540730355e-02
1.110447753e-02
7.284800135e-03
4.143860273e-03
1.887890034e-03
6.308059738e-04
1.730186861e-04
1.184441348e-02
1.213213269e-02
1.267007454e-02
1.343738486e-02
1.441414513e-02
1.557488907e-02
1.688677420e-02
1.830872846e-02
1.979033109e-02
2.126966697e-02
2.267781573e-02
2.430516652e-02
1.976722619e-02
1.520747675e-02
1.095548465e-02
7.183397128e-03
4.084661019e-03
1.861662940e-03
6.243382489e-04
1.725207338e-04
1.209782846e-02
1.238260365e-02
1.291484010e-02
1.367357970e-02
1.463877329e-02
1.578491232e-02
1.707925418e-02
1.848091714e-02
1.993969431e-02
2.139393400e-02
2.277743060e-02
2.414045012e-02
1.952056759e-02
1.501133833e-02
1.080932653e-02
7.083987625e-03
4.026679770e-03
1.835985514e-03
6.179939647e-04
1.720207973e-04
1.234716707e-02
1.262897872e-02
1.315547655e-02
1.390563310e-02
1.485929192e-02
1.599092531e-02
1.726788640e-02
1.864947931e-02
2.008569853e-02
2.151518840e-02
2.287508907e-02
2.385809551e-02
1.927816484e-02
1.481875323e-02
1.066588616e-02
6.986484598e-03
3.969852789e-03
1.810823208e-03
6.117623483e-04
1.715171410e-04
1.259247480e-02
1.287130123e-02
1.339204050e-02
1.413361646e-02
1.507578488e-02
1.619301511e-02
1.745276359e-02
1.881451237e-02
2.022843988e-02
2.163352540e-02
2.297104859e-02
2.357657095e-02
1.903987903e-02
1.462959180e-02
1.052505639e-02
6.890811216e-03
3.914126034e-03
1.786146414e-03
6.056339550e-04
1.710076050e-04
1.283379877e-02
1.310962955e-02
1.362460012e-02
1.435760383e-02
1.528833892e-02
1.639127473e-02
1.763398009e-02
1.897610304e-02
2.036800527e-02
2.174903961e-02
2.306561610e-02
2.329850815e-02
1.880557920e-02
1.444373018e-02
1.038674013e-02
6.796889039e-03
3.859449841e-03
1.761932146e-03
5.995999180e-04
1.704908853e-04
1.307119357e-02
1.334401312e-02
1.385321310e-02
1.457766743e-02
1.549703057e-02
1.658578970e-02
1.781161952e-02
1.913433534e-02
2.050447061e-02
2.186182075e-02
2.315915646e-02
2.302428203e-02
1.857514560e-02
1.426105324e-02
1.025084060e-02
6.704646963e-03
3.805775959e-03
1.738151699e-03
5.936534650e-04
1.699657022e-04
1.330470442e-02
1.357451554e-02
1.407794383e-02
1.479388176e-02
1.570193967e-02
1.677664437e-02
1.798577146e-02
1.928929820e-02
2.063792313e-02
2.197196556e-02
2.325212382e-02
2.275394969e-02
1.834845747e-02
1.408145412e-02
1.011727012e-02
6.614021021e-03
3.753059253e-03
1.714785266e-03
5.877878985e-04
1.694308459e-04
1.353439069e-02
1.380119046e-02
1.429886372e-02
1.500631594e-02
1.590314889e-02
1.696391983e-02
1.815651560e-02
1.944106640e-02
2.076843941e-02
2.207956294e-02
2.334508639e-02
2.248748917e-02
1.812540817e-02
1.390482579e-02
9.985943350e-03
6.524945449e-03
3.701261860e-03
1.691812301e-03
5.819962397e-04
1.688852433e-04
1.376031091e-02
1.402409979e-02
1.451603293e-02
1.521504133e-02
1.610073014e-02
1.714769210e-02
1.832393520e-02
1.958971961e-02
2.089609107e-02
2.218470950e-02
2.343877060e-02
2.222484930e-02
1.790589058e-02
1.373107878e-02
9.856785233e-03
6.437368934e-03
3.650344473e-03
1.669213576e-03
5.762738701e-04
1.683277102e-04
1.398251538e-02
1.424330732e-02
1.472951399e-02
1.542013143e-02
1.629475595e-02
1.732804454e-02
1.848809895e-02
1.973533114e-02
2.102095098e-02
2.228750722e-02
2.353414039e-02
2.196596158e-02
1.768979911e-02
1.356011460e-02
9.729722198e-03
6.351230526e-03
3.600272513e-03
1.646972959e-03
5.706149406e-04
1.677574187e-04
1.420106585e-02
1.445886282e-02
1.493937747e-02
1.562165387e-02
1.648530502e-02
1.750504607e-02
1.864908623e-02
1.987797201e-02
2.114308897e-02
2.238805764e-02
2.363249642e-02
2.171075825e-02
1.747703909e-02
1.339184564e-02
9.604684810e-03
6.266484961e-03
3.551012348e-03
1.625072026e-03
5.650155021e-04
1.671735116e-04
1.441602030e-02
1.467083881e-02
1.514568583e-02
1.581967555e-02
1.667244749e-02
1.767877002e-02
1.880696751e-02
2.001770872e-02
2.126257142e-02
2.248647379e-02
2.373565801e-02
2.145916388e-02
1.726752117e-02
1.322619509e-02
9.481606294e-03
6.183082997e-03
3.502535654e-03
1.603497400e-03
5.594709495e-04
1.665753771e-04
1.462743337e-02
1.487928640e-02
1.534850173e-02
1.601426474e-02
1.685624915e-02
1.784928952e-02
1.896180767e-02
2.015460950e-02
2.137947043e-02
2.258287659e-02
2.384622278e-02
2.121110297e-02
1.706114812e-02
1.306307747e-02
9.360425274e-03
6.100977396e-03
3.454810927e-03
1.582234986e-03
5.539777227e-04
1.659625085e-04
1.483536796e-02
1.508427077e-02
1.554788618e-02
1.620548648e-02
1.703677907e-02
1.801666931e-02
1.911367940e-02
2.028873503e-02
2.149384728e-02
2.267739960e-02
2.396796539e-02
2.096650838e-02
1.685783939e-02
1.290242591e-02
9.241083894e-03
6.020130474e-03
3.407813857e-03
1.561274769e-03
5.485331257e-04
1.653347905e-04
1.503988161e-02
1.528584872e-02
1.574390777e-02
1.639340828e-02
1.721410254e-02
1.818097391e-02
1.926264285e-02
2.042014653e-02
2.160576550e-02
2.277018810e-02
2.410619355e-02
2.072530613e-02
1.665751514e-02
1.274416650e-02
9.123528706e-03
5.940499191e-03
3.361518104e-03
1.540602503e-03
5.431342558e-04
1.646918400e-04
1.524102692e-02
1.548408330e-02
1.593661902e-02
1.657808863e-02
1.738828996e-02
1.834227017e-02
1.940875838e-02
2.054890560e-02
2.171529491e-02
2.286141443e-02
2.426397133e-02
2.048742671e-02
1.646009889e-02
1.258822584e-02
9.007701649e-03
5.862046479e-03
3.315902111e-03
1.520209459e-03
5.377787864e-04
1.640334763e-04
1.543886580e-02
1.567902797e-02
1.612608778e-02
1.675959128e-02
1.755939605e-02
1.850061774e-02
1.955208651e-02
2.067506984e-02
2.182249688e-02
2.295127684e-02
2.423300183e-02
2.025280238e-02
1.626550971e-02
1.243454978e-02
8.893558732e-03
5.784740845e-03
3.270943945e-03
1.500087199e-03
5.324650946e-04
1.633597347e-04
1.563345791e-02