/*--------------------------------*- C++ -*----------------------------------*\
| =========                 |                                                 |
| \\      /  F ield         | OpenFOAM: The Open Source CFD Toolbox           |
|  \\    /   O peration     | Version:  5.x                                   |
|   \\  /    A nd           | Web:      www.OpenFOAM.org                      |
|    \\/     M anipulation  |                                                 |
\*---------------------------------------------------------------------------*/
FoamFile
{
    version     2.0;
    format      ascii;
    class       volScalarField;
    location    "3.5";
    object       H2CC;
}
// * * * * * * * * * * * * * * * * * * * * * * * * * * * * * * * * * * * * * //

dimensions      [0 0 0 0 0 0 0];

internalField   nonuniform List<scalar>
51080
(
0.000000000e+00
0.000000000e+00
0.000000000e+00
0.000000000e+00
0.000000000e+00
0.000000000e+00
0.000000000e+00
0.000000000e+00
0.000000000e+00
0.000000000e+00
3.582178134e-14
4.933196736e-14
6.952288506e-14
1.077768329e-13
1.936211542e-13
4.126462284e-13
1.093387586e-12
3.958744558e-12
2.426660403e-11
3.621916763e-10
0.000000000e+00
0.000000000e+00
0.000000000e+00
0.000000000e+00
0.000000000e+00
0.000000000e+00
0.000000000e+00
0.000000000e+00
2.960596110e-14
3.840535088e-14
5.327369027e-14
7.580070505e-14
1.196567610e-13
2.221782510e-13
4.882581857e-13
1.334596495e-12
4.942727798e-12
2.820819704e-11
2.852868680e-10
2.922303924e-09
0.000000000e+00
0.000000000e+00
0.000000000e+00
0.000000000e+00
0.000000000e+00
0.000000000e+00
0.000000000e+00
3.159291824e-14
4.100544469e-14
5.718186098e-14
8.182048812e-14
1.295850980e-13
2.410880364e-13
5.253312194e-13
1.399558227e-12
4.914306870e-12
2.500293278e-11
1.985606533e-10
1.726067509e-09
7.302721802e-09
0.000000000e+00
0.000000000e+00
0.000000000e+00
0.000000000e+00
0.000000000e+00
2.767902820e-14
3.375016295e-14
4.337085836e-14
5.927153758e-14
8.677653107e-14
1.364106792e-13
2.516905414e-13
5.372954217e-13
1.369358121e-12
4.501267986e-12
2.037127495e-11
1.352084764e-10
1.057437670e-09
4.941068755e-09
1.167375107e-08
0.000000000e+00
0.000000000e+00
0.000000000e+00
0.000000000e+00
3.015883197e-14
3.648627654e-14
4.659416615e-14
6.347003680e-14
9.346410147e-14
1.418492653e-13
2.564756868e-13
5.307371623e-13
1.287224762e-12
3.944345894e-12
1.599711366e-11
9.099774926e-11
6.439868591e-10
3.293498717e-09
8.879106842e-09
1.504983158e-08
0.000000000e+00
2.697671472e-14
2.937985091e-14
3.341057005e-14
3.987196803e-14
5.029888423e-14
6.772239189e-14
9.851917978e-14
1.474092226e-13
2.573093272e-13
5.122088454e-13
1.178683065e-12
3.364628547e-12
1.231266446e-11
6.095484411e-11
3.872347591e-10
2.114954776e-09
6.550865410e-09
1.246999217e-08
1.702331175e-08
3.242268584e-14
3.420426659e-14
3.792146370e-14
4.428516665e-14
5.478604965e-14
7.239287885e-14
1.032840295e-13
1.513552924e-13
2.550285474e-13
4.861792257e-13
1.060092991e-12
2.819034477e-12
9.359198327e-12
4.074492534e-11
2.302724979e-10
1.294106535e-09
4.620119933e-09
9.951117337e-09
1.517796904e-08
1.727540518e-08
4.188423970e-14
4.463875940e-14
5.046450283e-14
6.066156793e-14
7.802068398e-14
1.083439570e-13
1.545052443e-13
2.500249022e-13
4.560958580e-13
9.421611153e-13
2.334777229e-12
7.062804962e-12
2.725325803e-11
1.361617408e-10
7.536005450e-10
3.071021345e-09
7.593209195e-09
1.289889888e-08
1.676768819e-08
1.510642149e-08
5.552913484e-14
5.982560887e-14
6.904408441e-14
8.555984431e-14
1.146016558e-13
1.576606164e-13
2.427754968e-13
4.212583294e-13
8.385667872e-13
1.927645397e-12
5.322573297e-12
1.831199470e-11
8.062955361e-11
4.212991303e-10
1.902149895e-09
5.475929065e-09
1.047042320e-08
1.511261367e-08
1.706095505e-08
8.556784480e-09
7.531509210e-14
8.204205887e-14
9.670226942e-14
1.236166946e-13
1.626911843e-13
2.373531696e-13
3.921740081e-13
7.368331186e-13
1.587279757e-12
4.021218264e-12
1.241056951e-11
4.817917668e-11
2.298426666e-10
1.093713469e-09
3.680040734e-09
8.062147778e-09
1.292369284e-08
1.647365473e-08
1.571496531e-08
4.294971109e-15
1.041455667e-13
1.145158437e-13
1.376786580e-13
1.713749440e-13
2.359858569e-13
3.694807717e-13
6.527079083e-13
1.310930859e-12
3.057479541e-12
8.516708097e-12
2.925546390e-11
1.247392060e-10
5.892596190e-10
2.274107549e-09
5.818891227e-09
1.049073471e-08
1.480500104e-08
1.690538444e-08
1.189926689e-08
1.465829964e-16
1.484800572e-13
1.613905538e-13
1.864325215e-13
2.413788602e-13
3.575937064e-13
5.895222669e-13
1.099627671e-12
2.358670856e-12
5.951673298e-12
1.817418978e-11
6.852604892e-11
3.044745651e-10
1.284462874e-09
3.877801083e-09
8.020867716e-09
1.257546627e-08
1.606106775e-08
1.627971746e-08
4.059416970e-09
4.579972598e-17
1.911280706e-13
2.109240780e-13
2.591825957e-13
3.572315745e-13
5.484380316e-13
9.468283804e-13
1.864924817e-12
4.269315842e-12
1.163590816e-11
3.867395757e-11
1.555875121e-10
6.699606193e-10
2.351769813e-09
5.701657645e-09
1.008000842e-08
1.423587293e-08
1.667277327e-08
1.431736276e-08
1.147902905e-15
1.951193699e-17
2.600008859e-13
2.953969133e-13
3.757389402e-13
5.322826069e-13
8.464539256e-13
1.527106480e-12
3.172440446e-12
7.740394740e-12
2.269913231e-11
8.093788203e-11
3.325706374e-10
1.291045755e-09
3.708309523e-09
7.554417422e-09
1.188403078e-08
1.544992749e-08
1.661516211e-08
1.046305016e-08
1.488656212e-16
9.082159724e-18
3.720861823e-13
4.256174327e-13
5.490323585e-13
7.971894241e-13
1.310841475e-12
2.467065881e-12
5.396912580e-12
1.399868703e-11
4.384183763e-11
1.637345277e-10
6.515109303e-10
2.176259559e-09
5.218506511e-09
9.305351023e-09
1.338480738e-08
1.622197695e-08
1.582723927e-08
4.022021448e-09
5.752002437e-17
4.333051324e-18
5.332429777e-13
6.146635328e-13
8.050655678e-13
1.196904523e-12
2.032090812e-12
3.983146431e-12
9.156646771e-12
2.514157415e-11
8.304638971e-11
3.144251095e-10
1.151853519e-09
3.269357098e-09
6.759000043e-09
1.088065995e-08
1.457173138e-08
1.656326461e-08
1.418380810e-08
4.158480047e-15
2.876402531e-17
2.069850644e-18
7.651341316e-13
8.889009914e-13
1.182058116e-12
1.797879139e-12
3.147514023e-12
6.414395619e-12
1.545221783e-11
4.461040310e-11
1.526017093e-10
5.642109244e-10
1.838601238e-09
4.485510598e-09
8.242277434e-09
1.224672645e-08
1.545357739e-08
1.648005235e-08
1.147127335e-08
2.980832284e-16
1.590646082e-17
9.811862067e-19
1.098466327e-12
1.285977128e-12
1.735444547e-12
2.697937224e-12
4.863853759e-12
1.028482170e-11
2.586076521e-11
7.773487838e-11
2.690981610e-10
9.373811322e-10
2.681256810e-09
5.744668907e-09
9.615308754e-09
1.339487727e-08
1.604739882e-08
1.596625783e-08
7.416399448e-09
1.107503231e-16
9.235146927e-18
4.603980224e-19
1.576729249e-12
1.859539926e-12
2.545134529e-12
4.040206627e-12
7.489421691e-12
1.639034160e-11
4.278209765e-11
1.321470466e-10
4.511582169e-10
1.441105508e-09
3.630366234e-09
6.985869989e-09
1.085081477e-08
1.433058123e-08
1.637199403e-08
1.499848271e-08
2.157129679e-09
5.819363425e-17
5.512825176e-18
2.139816758e-19
2.261376513e-12
2.685789164e-12
3.725708195e-12
6.032575049e-12
1.147849328e-11
2.591298546e-11
6.970266278e-11
2.177387685e-10
7.147514336e-10
2.063212726e-09
4.634962642e-09
8.168511140e-09
1.193865174e-08
1.506651345e-08
1.644434302e-08
1.353327686e-08
5.360979667e-15
3.522703418e-17
3.352879907e-18
9.874619655e-20
3.238955963e-12
3.872512196e-12
5.440520905e-12
8.974369824e-12
1.749042279e-11
4.055863566e-11
1.113937943e-10
3.457981665e-10
1.068307385e-09
2.778175556e-09
5.652296437e-09
9.268542184e-09
1.287921112e-08
1.561827845e-08
1.627772308e-08
1.150882689e-08
4.984901252e-16
2.296166456e-17
2.069649917e-18
4.540201607e-20
4.630872434e-12
5.571419069e-12
7.920826036e-12
1.329190324e-11
2.646426952e-11
6.270108930e-11
1.739157217e-10
5.270566356e-10
1.510306200e-09
3.555628570e-09
6.650658581e-09
1.027387893e-08
1.367894399e-08
1.600193461e-08
1.588084826e-08
8.860571969e-09
1.950077389e-16
1.565974872e-17
1.294860232e-18
2.089213921e-20
6.606540724e-12
7.994724422e-12
1.149123876e-11
1.958418800e-11
3.970615768e-11
9.549681906e-11
2.643389953e-10
7.693976737e-10
2.030418072e-09
4.366768221e-09
7.608585963e-09
1.118043645e-08
1.434736435e-08
1.623265467e-08
1.525764800e-08
5.583950482e-09
1.080680480e-16
1.101906988e-17
8.210129103e-19
9.677108779e-21
9.400886639e-12
1.143703614e-11
1.660256069e-11
2.867894465e-11
5.898012515e-11
1.429152204e-10
3.899576728e-10
1.076076118e-09
2.612881567e-09
5.187575073e-09
8.512800551e-09
1.198923981e-08
1.489525307e-08
1.632401897e-08
1.440751874e-08
1.990147676e-09
6.975695319e-17
7.940517071e-18
5.278261699e-19
4.544915683e-21
1.333704358e-11
1.630339379e-11
2.387256154e-11
4.169624070e-11
8.658435723e-11
2.096477802e-10
5.572238078e-10
1.445210052e-09
3.240104968e-09
5.999619944e-09
9.356067438e-09
1.270433156e-08
1.533351551e-08
1.628773938e-08
1.332605490e-08
1.547285511e-13
4.895523093e-17
5.835238215e-18
3.443162422e-19
2.182791610e-21
1.885505261e-11
2.314408205e-11
3.413403536e-11
6.011363877e-11
1.253849665e-10
3.008152694e-10
7.706781812e-10
1.870571649e-09
3.895291609e-09
6.789679439e-09
1.013537910e-08
1.333139064e-08
1.567257776e-08
1.613361403e-08
1.200656007e-08
1.617969403e-15
3.620465144e-17
4.361816834e-18
2.280771570e-19
1.081304945e-21
2.654667445e-11
3.269561295e-11
4.848705654e-11
8.582083430e-11
1.787815881e-10
4.214343049e-10
1.032216650e-09
2.343107562e-09
4.563869509e-09
7.548816413e-09
1.085055845e-08
1.387685894e-08
1.592200814e-08
1.586958241e-08
1.044287979e-08
5.134391166e-16
2.775763388e-17
3.311044142e-18
1.535173445e-19
5.565221686e-22
3.719555724e-11
4.592605707e-11
6.834953479e-11
1.211459139e-10
2.505964131e-10
5.758279996e-10
1.340907654e-09
2.852536534e-09
5.233980367e-09
8.271436328e-09
1.150324072e-08
1.434732265e-08
1.609042135e-08
1.550191373e-08
8.634985522e-09
2.664154396e-16
2.185542945e-17
2.549533078e-18
1.050561593e-19
2.990196415e-22
5.181986543e-11
6.407983451e-11
9.549565989e-11
1.688374211e-10
3.447788109e-10
7.670626725e-10
1.693348695e-09
3.388607746e-09
5.896436936e-09
8.954406114e-09
1.209616511e-08
1.474919726e-08
1.618538152e-08
1.503536984e-08
6.600278317e-09
1.689934887e-16
1.756931080e-17
1.989697100e-18
7.312076056e-20
1.680929153e-22
7.171286005e-11
8.871469152e-11
1.320683596e-10
2.320044591e-10
4.650609738e-10
9.965696935e-10
2.084349841e-09
3.941904380e-09
6.544406865e-09
9.596374672e-09
1.263264088e-08
1.508851475e-08
1.621347366e-08
1.447338588e-08
4.398368234e-09
1.193279249e-16
1.436462762e-17
1.572690653e-18
5.177374195e-20
9.886713634e-23
9.847252648e-11
1.217196655e-10
1.805594653e-10
3.139228479e-10
6.145755893e-10
1.264038227e-09
2.507702356e-09
4.504238979e-09
7.173005471e-09
1.019723886e-08
1.311626895e-08
1.537081575e-08
1.618035656e-08
1.381834184e-08
2.192246122e-09
8.998505259e-17
1.191286096e-17
1.258248287e-18
3.729593274e-20
6.076090327e-23
1.340111446e-10
1.653044431e-10
2.437479984e-10
4.177995624e-10
7.955169329e-10
1.567567161e-09
2.956858824e-09
5.068778814e-09
7.778906540e-09
1.075772029e-08
1.355067366e-08
1.560112527e-08
1.609081064e-08
1.307178426e-08
4.221958056e-10
7.091511620e-17
1.000166079e-17
1.018380185e-18
2.733129736e-20
3.893299830e-23
1.805396656e-10
2.219676104e-10
3.245291330e-10
5.465014293e-10
1.008927787e-09
1.904003694e-09
3.425427168e-09
5.629997817e-09
8.359975134e-09
1.127908736e-08
1.393938586e-08
1.578392428e-08
1.594885361e-08
1.223471982e-08
2.981193470e-14
5.767224713e-17
8.488251921e-18
8.333639010e-19
2.037099032e-20
2.594188919e-23
2.405196130e-10
2.943676493e-10
4.257277125e-10
7.022864771e-10
1.254635148e-09
2.269348615e-09
3.907497659e-09
6.183533856e-09
8.914998826e-09
1.176293653e-08
1.428576477e-08
1.592318933e-08
1.575778676e-08
1.130800311e-08
2.692733938e-15
4.801954239e-17
7.273532375e-18
6.891378796e-19
1.543724890e-20
1.792583881e-23
3.165251511e-10
3.851680556e-10
5.498770667e-10
8.865964304e-10
1.531342997e-09
2.659154830e-09
4.397819410e-09
6.726031599e-09
9.443429876e-09
1.221102702e-08
1.459291983e-08
1.602241791e-08
1.552031616e-08
1.029284394e-08
1.015642545e-15
4.072017443e-17
6.286920658e-18
5.755644621e-19
1.188913934e-20
1.281110748e-23
4.110957589e-10
4.968535115e-10
6.990025395e-10
1.099944607e-09
1.836830297e-09
3.068864546e-09
4.891842960e-09
7.254978498e-09
9.945213928e-09
1.262521327e-08
1.486374348e-08
1.608465509e-08
1.523857443e-08
9.191471614e-09
5.564410713e-16
3.503919375e-17
5.477057552e-18
4.852533237e-19
9.300999369e-21
9.445046889e-24
5.265563263e-10
6.315339208e-10
8.744496986e-10
1.341910005e-09
2.168205492e-09
3.494040645e-09
5.385723777e-09
7.768538116e-09
1.042064909e-08
1.300732732e-08
1.510085067e-08
1.611253756e-08
1.491423016e-08
8.008254485e-09
3.622048618e-16
3.051431383e-17
4.805857835e-18
4.127577513e-19
7.386244399e-21
7.163966480e-24
6.648383958e-10
7.907718613e-10
1.076785659e-09
1.611231688e-09
2.522159692e-09
3.930547514e-09
5.876275170e-09
8.265418400e-09
1.087027597e-08
1.335916333e-08
1.530660278e-08
1.610833896e-08
1.454850420e-08
6.751319092e-09
2.600903352e-16
2.684128755e-17
4.244693231e-18
3.540390889e-19
5.950421750e-21
5.576995214e-24
8.273255052e-10
9.754639217e-10
1.305784378e-09
1.905959955e-09
2.895200383e-09
4.374616134e-09
6.360883427e-09
8.744766310e-09
1.129479665e-08
1.368244582e-08
1.548314718e-08
1.607400748e-08
1.414225469e-08
5.435284148e-09
1.988542406e-16
2.381215289e-17
3.771729991e-18
3.060684056e-19
4.859589218e-21
4.446478247e-24
1.014753005e-09
1.185789996e-09
1.560485359e-09
2.223644407e-09
3.283827758e-09
4.822913399e-09
6.837456982e-09
9.206055118e-09
1.169500460e-08
1.397878321e-08
1.563237297e-08
1.601118886e-08
1.369601510e-08
4.085913505e-09
1.587406614e-16
2.128015586e-17
3.370113705e-18
2.665540224e-19
4.020360078e-21
3.623262546e-24
1.227177308e-09
1.421230673e-09
1.839310430e-09
2.561521063e-09
3.684672431e-09
5.272527265e-09
7.304329718e-09
9.649041415e-09
1.207176792e-08
1.424969469e-08
1.575599103e-08
1.592125185e-08
1.321004541e-08
2.748602442e-09
1.307449765e-16
1.913900222e-17
3.026692340e-18
2.337468093e-19
3.366866923e-21
3.011934544e-24
1.463995839e-09
1.680645080e-09
2.140211581e-09
2.916671417e-09
4.094581709e-09
5.720951363e-09
7.760200727e-09
1.007366017e-08
1.242597202e-08
1.449658368e-08
1.585550483e-08
1.580533857e-08
1.268438820e-08
1.504707393e-09
1.102539323e-16
1.730983873e-17
2.731086887e-18
2.062965126e-19
2.851766440e-21
2.548910972e-24
1.724033742e-09
1.962386526e-09
2.460814363e-09
3.286162608e-09
4.510674636e-09
6.166063220e-09
8.204087232e-09
1.048000927e-08
1.275848616e-08
1.472074879e-08
1.593223530e-08
1.566436638e-08
1.211892911e-08
5.037060245e-10
9.469181140e-17
1.573324118e-17
2.475078999e-18
1.831622477e-19
2.441179213e-21
2.192238359e-24
2.005648099e-09
2.264429436e-09
2.798572741e-09
3.667145129e-09
4.930356540e-09
6.606078873e-09
8.635243587e-09
1.086830029e-08
1.307019012e-08
1.492336926e-08
1.598736277e-08
1.549906170e-08
1.151344197e-08
1.207595863e-11
8.251923142e-17
1.436349085e-17
2.252092569e-18
1.635318491e-19
2.110535218e-21
1.913805416e-24
2.306854358e-09
2.584506198e-09
3.150871959e-09
4.056925450e-09
5.351333252e-09
7.039510610e-09
9.053140703e-09
1.123882146e-08
1.336192409e-08
1.510554245e-08
1.602189541e-08
1.530996780e-08
1.086769904e-08
1.658624289e-14
7.276680097e-17
1.316493346e-17
2.056807911e-18
1.467644231e-19
1.841543277e-21
1.693383044e-24
2.625450146e-09
2.920218267e-09
3.515134206e-09
4.453004197e-09
5.771588881e-09
7.465145685e-09
9.457423668e-09
1.159192902e-08
1.363449764e-08
1.526825469e-08
1.603673230e-08
1.509748138e-08
1.018153095e-08
3.886478762e-15
6.479652157e-17
1.210941101e-17
1.884902123e-18
1.323514413e-19
1.620566069e-21
1.516651475e-24
2.959115880e-09
3.269141830e-09
3.888880882e-09
4.853110420e-09
6.189385610e-09
7.881995734e-09
9.847866832e-09
1.192801179e-08
1.388868109e-08
1.541240439e-08
1.603263223e-08
1.486183540e-08
9.454963100e-09
1.767287218e-15
5.817258452e-17
1.117435348e-17
1.732833800e-18
1.198870131e-19
1.437337770e-21
1.373312376e-24
3.305515845e-09
3.628896497e-09
4.269789315e-09
5.255197421e-09
6.603224784e-09
8.289263953e-09
1.022435841e-08
1.224747796e-08
1.412519132e-08
1.553880324e-08
1.601024492e-08
1.460314730e-08
8.688405817e-09
1.035601045e-15
5.258889697e-17
1.034158140e-17
1.597702707e-18
1.090462566e-19
1.284093179e-21
1.255888321e-24
3.662361868e-09
3.997206463e-09
4.655699346e-09
5.657448932e-09
7.011836511e-09
8.686323012e-09
1.058687548e-08
1.255076589e-08
1.434473122e-08
1.564819362e-08
1.597012732e-08
1.432139517e-08
7.882871415e-09
6.936456774e-16
4.782398166e-17
9.596255677e-18
1.477094128e-18
9.956592482e-20
1.154857475e-21
1.158710531e-24
4.027464041e-09
4.371934954e-09
5.044657177e-09
6.058260353e-09
7.414148044e-09
9.072696962e-09
1.093546915e-08
1.283830743e-08
1.454793093e-08
1.574121830e-08
1.591273079e-08
1.401646501e-08
7.040316731e-09
5.043313468e-16
4.371425574e-17
8.926118358e-18
1.368988733e-18
9.122946611e-20
1.044953147e-21
1.077812045e-24
4.398762578e-09
4.751109053e-09
5.434890678e-09
6.456242193e-09
7.809261983e-09
9.448017824e-09
1.127024127e-08
1.311054040e-08
1.473538590e-08
1.581847821e-08
1.583843418e-08
1.368813631e-08
6.164100883e-09
3.874728729e-16
4.013653711e-17
8.321074081e-18
1.271714065e-18
8.386160995e-20
9.507082670e-22
1.009383737e-24
4.774358659e-09
5.132926166e-09
5.824834995e-09
6.850179294e-09
8.196430908e-09
9.812025608e-09
1.159133666e-08
1.336788319e-08
1.490765975e-08
1.588049432e-08
1.574750548e-08
1.333609196e-08
5.259754017e-09
3.096463013e-16
3.699644372e-17
7.772711530e-18
1.183875389e-18
7.732134403e-20
8.694128079e-22
9.515117035e-25
5.152515834e-09
5.515763226e-09
6.213088637e-09
7.239041427e-09
8.575050351e-09
1.016454362e-08
1.189893866e-08
1.361075660e-08
1.506526246e-08
1.592773326e-08
1.564018252e-08
1.295994605e-08
4.336009943e-09
2.548252625e-16
3.422033503e-17
7.273953373e-18
1.104278279e-18
7.148966297e-20
7.988204164e-22
9.022196085e-25
5.531663503e-09
5.898165448e-09
6.598437220e-09
7.621933793e-09
8.944631457e-09
1.050546355e-08
1.219324791e-08
1.383956434e-08
1.520867352e-08
1.596060507e-08
1.551659429e-08
1.255923552e-08
3.406501032e-09
2.145101960e-16
3.175010111e-17
6.818770394e-18
1.031911490e-18
6.626715814e-20
7.371026377e-22
8.598969991e-25
5.910398131e-09
6.278842892e-09
6.979814001e-09
7.998117566e-09
9.304777944e-09
1.083473432e-08
1.247449033e-08
1.405469378e-08
1.533833275e-08
1.597946556e-08
1.537682820e-08
1.213345804e-08
2.492477717e-09
1.838335418e-16
2.953912097e-17
6.402077053e-18
9.659106189e-19
6.157078092e-20
6.827992510e-22
8.233262800e-25
6.287462234e-09
6.656663542e-09
7.356297480e-09
8.366956724e-09
9.655191278e-09
1.115236300e-08
1.274289478e-08
1.425651976e-08
1.545464202e-08
1.598461796e-08
1.522088702e-08
1.168206149e-08
1.627242199e-09
1.598370760e-16
2.754986895e-17
6.019500769e-18
9.055357917e-19
5.733109418e-20
6.347376184e-22
7.915315272e-25
6.661761019e-09
7.030632802e-09
7.727102201e-09
8.727935507e-09
9.995645463e-09
1.145837728e-08
1.299870996e-08
1.444540471e-08
1.555796593e-08
1.597632939e-08
1.504873628e-08
1.120447572e-08
8.634665551e-10
1.406322152e-16
2.575159672e-17
5.667290276e-18
8.501547232e-19
5.348964416e-20
5.919585668e-22
7.637267364e-25
7.032324969e-09
7.399889600e-09
8.091557833e-09
9.080625587e-09
1.032596871e-08
1.175285851e-08
1.324217740e-08
1.462166805e-08
1.564864145e-08
1.595480851e-08
1.486027562e-08
1.070014019e-08
2.841768007e-10
1.249649410e-16
2.411890312e-17
5.342216743e-18
7.992179466e-19
4.999673963e-20
5.536758367e-22
7.392649769e-25
7.398315081e-09
7.763695400e-09
8.449087890e-09
9.424678655e-09
1.064605443e-08
1.203590394e-08
1.347353642e-08
1.478564728e-08
1.572697916e-08
1.592023370e-08
1.465534624e-08
1.016853915e-08
1.026291589e-11
1.119735396e-16
2.263078101e-17
5.041480059e-18
7.522535276e-19
4.681034342e-20
5.192443554e-22
7.176200194e-25
7.759000291e-09
8.121410103e-09
8.799224180e-09
9.759824148e-09
1.095583833e-08
1.230762055e-08
1.369304610e-08
1.493762941e-08
1.579324238e-08
1.587275009e-08
1.443374696e-08
9.609218538e-09
3.247904479e-14
1.010490629e-16
2.126955858e-17
4.762634170e-18
7.088482212e-19
4.389439872e-20
4.881230725e-22
6.983464551e-25
8.113754608e-09
8.472488334e-09
9.141560848e-09
1.008584662e-08
1.125529426e-08
1.256814780e-08
1.390093194e-08
1.507790962e-08
1.584768346e-08
1.581243815e-08
1.419522104e-08
9.021880301e-09
7.192885680e-15
9.175042986e-17
2.002030268e-17
4.503557181e-18
6.686444487e-19
4.121810082e-20
4.598657085e-22
6.810788140e-25
8.462052150e-09
8.816481288e-09
9.475789266e-09
1.040258371e-08
1.154442021e-08
1.281762882e-08
1.409744266e-08
1.520673819e-08
1.589051747e-08
1.573936297e-08
1.393945507e-08
8.406445270e-09
3.162776675e-15
8.375116157e-17
1.887035704e-17
4.262369339e-18
6.313276351e-19
3.875490075e-20
4.340959578e-22
6.655073440e-25
8.803433706e-09
9.153000358e-09
9.801634604e-09
1.070992954e-08
1.182326363e-08
1.305621807e-08
1.428279229e-08
1.532436852e-08
1.592192758e-08
1.565356175e-08
1.366611757e-08
7.763135966e-09
1.806205429e-15
7.680502037e-17
1.780889271e-17
4.037429042e-18
5.966222605e-19
3.648181251e-20
4.104977474e-22
6.513651237e-25
9.137524036e-09
9.481737695e-09
1.011889386e-08
1.100779946e-08
1.209186596e-08
1.328407606e-08
1.445721787e-08
1.543102627e-08
1.594208330e-08
1.555501065e-08
1.337481257e-08
7.092640917e-09
1.184103974e-15
7.072318038e-17
1.682657829e-17
3.827282569e-18
5.642849544e-19
3.437898768e-20
3.888012825e-22
6.384329540e-25
9.464011067e-09
9.802432935e-09
1.042741647e-08
1.129616136e-08
1.235030548e-08
1.350136630e-08
1.462092189e-08
1.552691962e-08
1.595112987e-08
1.544367542e-08
1.306509661e-08
6.396290065e-09
8.451479227e-16
6.535848688e-17
1.591535821e-17
3.630642815e-18
5.341028403e-19
3.242918355e-20
3.687800547e-22
6.265201206e-25
9.782636308e-09
1.011488209e-08
1.072707774e-08
1.157499581e-08
1.259866764e-08
1.370824687e-08
1.477410644e-08
1.561224752e-08
1.594916758e-08
1.531947618e-08
1.273651000e-08
5.676352514e-09
6.388580128e-16
6.059500030e-17
1.506822718e-17
3.446359345e-18
5.058844093e-19
3.061725480e-20
3.502386803e-22
6.154606490e-25
1.009319552e-08
1.041893231e-08
1.101780393e-08
1.184432516e-08
1.283705741e-08
1.390488907e-08
1.491697412e-08
1.568717699e-08
1.593630468e-08
1.518229889e-08
1.238855008e-08
4.936391624e-09
5.032401810e-16
5.634007303e-17
1.427910147e-17
3.273415383e-18
4.794619506e-19
2.892998387e-20
3.330134079e-22
6.051189741e-25
1.039552136e-08
1.071445431e-08
1.129954145e-08
1.210416682e-08
1.306557085e-08
1.409145102e-08
1.504969818e-08
1.575187129e-08
1.591259235e-08
1.503202086e-08
1.202069823e-08
4.181872591e-09
4.088542834e-16
5.251893245e-17
1.354260644e-17
3.110896784e-18
4.546850742e-19
2.735577439e-20
3.169604676e-22
5.953665533e-25
1.068949643e-08
1.100136448e-08
1.157226062e-08
1.235457470e-08
1.328433681e-08
1.426809634e-08
1.517246057e-08
1.580647367e-08
1.587809171e-08
1.486844802e-08
1.163239494e-08
3.420937776e-09
3.402238014e-16
4.907059316e-17
1.285401196e-17
2.957985124e-18
4.314193303e-19
2.588437425e-20
3.019558925e-22
5.861018174e-25
1.097502345e-08
1.127960951e-08
1.183596665e-08
1.259561773e-08
1.349347165e-08
1.443498174e-08
1.528541572e-08
1.585110831e-08
1.583280726e-08
1.469138973e-08
1.122309090e-08
2.665728566e-09
2.885588567e-16
4.594481531e-17
1.220916066e-17
2.813937807e-18
4.095446958e-19
2.450675273e-20
2.878938974e-22
5.772378047e-25
1.125204709e-08
1.154915367e-08
1.209067640e-08
1.282736103e-08
1.369309156e-08
1.459225606e-08
1.538872190e-08
1.588587829e-08
1.577676016e-08
1.450060937e-08
1.079221724e-08
1.934250063e-09
2.485532199e-16
4.310000204e-17
1.160434190e-17
2.678100741e-18
3.889534895e-19
2.321495059e-20
2.746816983e-22
5.686950251e-25
1.152052325e-08
1.180998657e-08
1.233642041e-08
1.304989535e-08
1.388332166e-08
1.474006581e-08
1.548251904e-08
1.591088747e-08
1.570990920e-08
1.429584839e-08
1.033926098e-08
1.253363404e-09
2.168444435e-16
4.050131303e-17
1.103627482e-17
2.549866035e-18
3.695492818e-19
2.200180938e-20
2.622394011e-22
5.604064064e-25
1.178044643e-08
1.206211958e-08
1.257325044e-08
1.326330084e-08
1.406429488e-08
1.487855559e-08
1.556693394e-08
1.592620426e-08
1.563222471e-08
1.407679849e-08
9.863697953e-09
6.632115993e-10
1.912140429e-16
3.811937455e-17
1.050199563e-17
2.428695064e-18
3.512429482e-19
2.086104760e-20
2.504978880e-22
5.523120025e-25
1.203181683e-08
1.230557909e-08
1.280122567e-08
1.346767379e-08
1.423612206e-08
1.500786167e-08
1.564208996e-08
1.593189383e-08
1.554363844e-08
1.384314206e-08
9.365112121e-09
2.228054478e-10
1.701468048e-16
3.592925190e-17
9.998880995e-18
2.314091332e-18
3.339567479e-19
1.978694905e-20
2.393949531e-22
5.443621653e-25
1.227464992e-08
1.254040045e-08
1.302040605e-08
1.366312157e-08
1.439892807e-08
1.512811026e-08
1.570809005e-08
1.592799936e-08
1.544405780e-08
1.359453102e-08
8.843165624e-09
1.129096462e-11
1.525793616e-16
3.390974207e-17
9.524553183e-18
2.205610736e-18
3.176178992e-19
1.877441882e-20
2.288752012e-22
5.365111995e-25
1.250898242e-08
1.276662557e-08
1.323086675e-08
1.384973333e-08
1.455284503e-08
1.523941936e-08
1.576503005e-08
1.591455913e-08
1.533338361e-08
1.333057286e-08
8.297687526e-09
4.839777296e-14
1.377451104e-16
3.204259860e-17
9.076887274e-18
2.102838802e-18
3.021623238e-19
1.781896613e-20
2.188923957e-22
5.287205493e-25
1.273485432e-08
1.298432580e-08
1.343269524e-08
1.402762000e-08
1.469797559e-08
1.534190746e-08
1.581299929e-08
1.589157879e-08
1.521147926e-08
1.305085596e-08
7.728705153e-09
1.007230943e-14
1.250805009e-16
3.031210473e-17
8.653935821e-18
2.005402314e-18
2.875294883e-19
1.691639077e-20
2.094042463e-22
5.209641030e-25
1.295231874e-08
1.319355292e-08
1.362596593e-08
1.419687704e-08
1.483443460e-08
1.543567706e-08
1.585206805e-08
1.585907038e-08
1.507819484e-08
1.275494675e-08
7.136575375e-09
4.313259383e-15
1.141623571e-16
2.870462030e-17
8.253955915e-18
1.912962267e-18
2.736657034e-19
1.606297939e-20
2.003737810e-22
5.132103718e-25
1.316143581e-08
1.339439018e-08
1.381077728e-08
1.435760875e-08
1.496233517e-08
1.552082612e-08
1.588230492e-08
1.581700621e-08
1.493335752e-08
1.244239273e-08
6.522049705e-09
2.421534370e-15
1.046680021e-16
2.720822501e-17
7.875363508e-18
1.825202830e-18
2.605216358e-19
1.525548160e-20
1.917675738e-22
5.054424218e-25
1.336227755e-08
1.358689653e-08
1.398720410e-08
1.450991560e-08
1.508177353e-08
1.559744611e-08
1.590374935e-08
1.576535132e-08
1.477675981e-08
1.211270118e-08
5.886476518e-09
1.567070154e-15
9.634778081e-17
2.581252750e-17
7.516705175e-18
1.741833774e-18
2.480517804e-19
1.449071976e-20
1.835574837e-22
4.976443484e-25
1.355490415e-08
1.377116536e-08
1.415533686e-08
1.465389515e-08
1.519284910e-08
1.566562260e-08
1.591644801e-08
1.570407101e-08
1.460818919e-08
1.176538268e-08
5.232013081e-09
1.106678124e-15
8.900552274e-17
2.450837184e-17
7.176660880e-18
1.662591801e-18
2.362141396e-19
1.376599015e-20
1.757174212e-22
4.898022831e-25
1.373939304e-08
1.394726515e-08
1.431527645e-08
1.478963939e-08
1.529565807e-08
1.572542156e-08
1.592042561e-08
1.563308514e-08
1.442740911e-08
1.139992673e-08
4.561920633e-09
8.290212431e-16
8.248567121e-17
2.328767188e-17
6.854018447e-18
1.587228208e-18
2.249710117e-19
1.307876095e-20
1.682228392e-22
4.819052012e-25
1.391582678e-08
1.411528284e-08
1.446710164e-08
1.491724313e-08
1.539028441e-08
1.577690542e-08
1.591570796e-08
1.555232311e-08
1.423414229e-08
1.101581620e-08
3.881041984e-09
6.479032619e-16
7.666305238e-17
2.214331411e-17
6.547675319e-18
1.515520879e-18
2.142868075e-19
1.242669807e-20
1.610537154e-22
4.739412127e-25
1.408427345e-08
1.427530637e-08
1.461089484e-08
1.503679591e-08
1.547680356e-08
1.582014091e-08
1.590228002e-08
1.546168884e-08
1.402810425e-08
1.061255023e-08
3.196422084e-09
5.227226380e-16
7.143607520e-17
2.106889893e-17
6.256618931e-18
1.447254905e-18
2.041288657e-19
1.180770744e-20
1.541898546e-22
4.659045483e-25
1.424481740e-08
1.442739969e-08
1.474675257e-08
1.514838036e-08
1.555529657e-08
1.585516601e-08
1.588014527e-08
1.536106733e-08
1.380898477e-08
1.018962867e-08
2.518245845e-09
4.322751487e-16
6.672165800e-17
2.005874234e-17
5.979910987e-18
1.382239733e-18
1.944670054e-19
1.121976278e-20
1.476146247e-22
4.577893784e-25
1.439753419e-08
1.457166261e-08
1.487475026e-08
1.525207499e-08
1.562583124e-08
1.588202038e-08
1.584928336e-08
1.525032234e-08
1.357644426e-08
9.746601352e-09
1.861283904e-09
3.645826809e-16
6.245122946e-17
1.910781181e-17
5.716686400e-18
1.320293536e-18
1.852735597e-19
1.066110210e-20
1.413117218e-22
4.495941903e-25
1.454249785e-08
1.470815896e-08
1.499496840e-08
1.534795442e-08
1.568845931e-08
1.590073562e-08
1.580965235e-08
1.512931514e-08
1.333013205e-08
9.283060031e-09
1.246935216e-09
3.124517632e-16
5.856746835e-17
1.821151002e-17
5.466151022e-18
1.261246763e-18
1.765221509e-19
1.013004681e-20
1.352669043e-22
4.413190625e-25
1.467978910e-08
1.483697294e-08
1.510747801e-08
1.543608900e-08
1.574323984e-08
1.591132759e-08
1.576122165e-08
1.499787047e-08
1.306966225e-08
8.798684102e-09
7.062816704e-10
2.713450483e-16
5.502254517e-17
1.736576823e-17
5.227568939e-18
1.204945545e-18
1.681889999e-19
9.625119085e-21
1.294677239e-22
4.329699308e-25
1.480948184e-08
1.495817423e-08
1.521236339e-08
1.551654683e-08
1.579021183e-08
1.591380114e-08
1.570392338e-08
1.485580798e-08
1.279463530e-08
8.293264667e-09
2.837804849e-10
2.382794759e-16
5.177604471e-17
1.656686353e-17
5.000261886e-18
1.151242126e-18
1.602513667e-19
9.144823890e-21
1.239022453e-22
4.245492894e-25
1.493164078e-08
1.507183607e-08
1.530967548e-08
1.558937861e-08
1.582942803e-08
1.590816140e-08
1.563768592e-08
1.470292331e-08
1.250463403e-08
7.766764823e-09
3.911273866e-11
2.112269297e-16
4.879361951e-17
1.581142191e-17
4.783585858e-18
1.100000140e-18
1.526886749e-19
8.687882995e-21
1.185596859e-22
4.160624813e-25
1.504633872e-08
1.517802517e-08
1.539949128e-08
1.565464104e-08
1.586091070e-08
1.589439720e-08
1.556242444e-08
1.453900517e-08
1.219921234e-08
7.219375611e-09
1.363600482e-13
1.887677024e-16
4.604583686e-17
1.509644220e-17
4.576965344e-18
1.051094831e-18
1.454812510e-19
8.253088247e-21
1.134305162e-22
4.075178351e-25
1.515364649e-08