/*--------------------------------*- C++ -*----------------------------------*\
| =========                 |                                                 |
| \\      /  F ield         | OpenFOAM: The Open Source CFD Toolbox           |
|  \\    /   O peration     | Version:  5.x                                   |
|   \\  /    A nd           | Web:      www.OpenFOAM.org                      |
|    \\/     M anipulation  |                                                 |
\*---------------------------------------------------------------------------*/
FoamFile
{
    version     2.0;
    format      ascii;
    class       volScalarField;
    location    "3.5";
    object       H2O;
}
// * * * * * * * * * * * * * * * * * * * * * * * * * * * * * * * * * * * * * //

dimensions      [0 0 0 0 0 0 0];

internalField   nonuniform List<scalar>
51080
(
0.000000000e+00
0.000000000e+00
0.000000000e+00
0.000000000e+00
0.000000000e+00
0.000000000e+00
0.000000000e+00
0.000000000e+00
0.000000000e+00
0.000000000e+00
1.232650766e-13
2.237064409e-13
3.943170838e-13
7.575673725e-13
1.657966516e-12
4.102877919e-12
1.179117014e-11
4.272848513e-11
2.424296169e-10
3.394772747e-09
0.000000000e+00
0.000000000e+00
0.000000000e+00
0.000000000e+00
0.000000000e+00
0.000000000e+00
0.000000000e+00
0.000000000e+00
8.640750778e-14
1.465712959e-13
2.646915098e-13
4.667786499e-13
9.055983578e-13
2.028463355e-12
5.092298878e-12
1.482792606e-11
5.412998576e-11
2.853901700e-10
2.719752099e-09
3.297932944e-08
0.000000000e+00
0.000000000e+00
0.000000000e+00
0.000000000e+00
0.000000000e+00
0.000000000e+00
0.000000000e+00
1.021290854e-13
1.707074651e-13
3.064310323e-13
5.382619456e-13
1.034925072e-12
2.291490511e-12
5.629215193e-12
1.582661086e-11
5.462219298e-11
2.577700076e-10
1.916954506e-09
1.835864908e-08
1.062603254e-07
0.000000000e+00
0.000000000e+00
0.000000000e+00
0.000000000e+00
0.000000000e+00
7.852245293e-14
1.195421829e-13
1.933393458e-13
3.315559256e-13
5.994691258e-13
1.129804913e-12
2.454569829e-12
5.855456632e-12
1.567775577e-11
5.074419623e-11
2.142261341e-10
1.323536795e-09
1.084443865e-08
6.431716195e-08
2.203014693e-07
0.000000000e+00
0.000000000e+00
0.000000000e+00
0.000000000e+00
9.620700357e-14
1.418980538e-13
2.236558291e-13
3.766546599e-13
6.790234724e-13
1.207555970e-12
2.543676994e-12
5.843992220e-12
1.487001912e-11
4.505525269e-11
1.716057102e-10
9.055041100e-10
6.455998697e-09
3.940776793e-08
1.447038397e-07
3.705275675e-07
0.000000000e+00
7.605952049e-14
9.192624363e-14
1.204302240e-13
1.702484969e-13
2.588794831e-13
4.226947610e-13
7.411981069e-13
1.284995642e-12
2.579938854e-12
5.672301755e-12
1.370117859e-11
3.889335480e-11
1.346937978e-10
6.182352110e-10
3.839590527e-09
2.367148544e-08
9.486108460e-08
2.556744937e-07
5.590551958e-07
1.140244892e-13
1.272105077e-13
1.559388615e-13
2.084004749e-13
3.020916506e-13
4.732470545e-13
7.997105434e-13
1.341948968e-12
2.573351941e-12
5.395287275e-12
1.236880496e-11
3.292551133e-11
1.043438308e-10
4.221775104e-10
2.282209035e-09
1.375682378e-08
6.050380055e-08
1.758840468e-07
3.942343935e-07
8.023329185e-07
1.890907403e-13
2.125200130e-13
2.640789906e-13
3.597116698e-13
5.340723033e-13
8.609088157e-13
1.387653116e-12
2.528912284e-12
5.056660704e-12
1.100740022e-11
2.750124683e-11
8.016180233e-11
2.889390877e-10
1.361379676e-09
7.727927420e-09
3.689271174e-08
1.180712297e-07
2.789432927e-07
5.617940470e-07
1.163479529e-06
3.118981510e-13
3.529582334e-13
4.441730421e-13
6.158674678e-13
9.351157717e-13
1.431579262e-12
2.452903448e-12
4.649456858e-12
9.790732937e-12
2.284701076e-11
6.139533691e-11
1.987771348e-10
8.194835799e-10
4.235132775e-09
2.126981285e-08
7.601709789e-08
1.938153575e-07
4.017636982e-07
7.684483982e-07
2.015423293e-06
5.095343703e-13
5.801030601e-13
7.383927285e-13
1.040708477e-12
1.496158302e-12
2.395729883e-12
4.305706120e-12
8.574132964e-12
1.888355818e-11
4.703426026e-11
1.378702263e-10
5.005564349e-10
2.300318714e-09
1.157793132e-08
4.621872506e-08
1.300655816e-07
2.848349462e-07
5.447602105e-07
1.046540275e-06
3.457599072e-03
8.221753883e-13
9.389302431e-13
1.205572783e-12
1.603251380e-12
2.385463127e-12
4.035643019e-12
7.557096049e-12
1.561301547e-11
3.616220290e-11
9.667771006e-11
3.117267155e-10
1.259586374e-09
6.021478528e-09
2.622686689e-08
8.298358526e-08
1.966204795e-07
3.891836866e-07
7.127552665e-07
1.516756449e-06
2.050756895e-02
1.333979384e-12
1.486843358e-12
1.786754275e-12
2.456156096e-12
3.895968538e-12
6.787808242e-12
1.307862170e-11
2.811698895e-11
6.885205004e-11
1.987995046e-10
7.052281261e-10
3.064869174e-09
1.385647128e-08
4.956593801e-08
1.301086795e-07
2.733752800e-07
5.063744986e-07
9.193254796e-07
3.180846409e-06
3.537700008e-02
1.845283616e-12
2.085923061e-12
2.678692049e-12
3.897169206e-12
6.286225158e-12
1.122683396e-11
2.233007360e-11
5.015191329e-11
1.305044023e-10
4.081542907e-10
1.570914586e-09
6.913572785e-09
2.738534877e-08
8.123901667e-08
1.856513153e-07
3.586355237e-07
6.378671611e-07
1.200965293e-06
6.839527058e-03
4.788242943e-02
2.690813150e-12
3.129905248e-12
4.132291408e-12
6.091499622e-12
1.000199959e-11
1.831191724e-11
3.768458068e-11
8.874071256e-11
2.462270272e-10
8.308899153e-10
3.362352680e-09
1.398474463e-08
4.712639908e-08
1.199949848e-07
2.478384276e-07
4.514649158e-07
7.880651993e-07
1.680727809e-06
2.021091045e-02
5.814404696e-02
4.089012786e-12
4.759583335e-12
6.305928088e-12
9.400428679e-12
1.571129214e-11
2.951230414e-11
6.297346687e-11
1.559099563e-10
4.613266734e-10
1.656626833e-09
6.733872670e-09
2.513314730e-08
7.263733336e-08
1.643940052e-07
3.152755242e-07
5.517569503e-07
9.667312439e-07
3.171065826e-06
3.196218603e-02
6.637238998e-02
6.111012754e-12
7.130546419e-12
9.504145172e-12
1.433313803e-11
2.439685948e-11
4.707309135e-11
1.043395952e-10
2.719183529e-10
8.538212882e-10
3.184309056e-09
1.238231562e-08
4.058124593e-08
1.030088555e-07
2.131297696e-07
3.869820283e-07
6.603632813e-07
1.195527356e-06
3.462375741e-03
4.206551400e-02
7.280041329e-02
9.010952341e-12
1.054812874e-11
1.415871999e-11
2.161559922e-11
3.750002721e-11
7.440946889e-11
1.715282674e-10
4.699707722e-10
1.548588480e-09
5.807450059e-09
2.080166634e-08
6.001692459e-08
1.372368621e-07
2.651326752e-07
4.623729931e-07
7.793766382e-07
1.529414629e-06
1.394374342e-02
5.063336501e-02
7.766326199e-02
1.313719784e-11
1.543378597e-11
2.087533803e-11
3.228262854e-11
5.712889968e-11
1.166824876e-10
2.797487679e-10
8.022755524e-10
2.726416650e-09
9.934697065e-09
3.214382731e-08
8.285233973e-08
1.744008691e-07
3.195797601e-07
5.412360314e-07
9.127378279e-07
2.155785191e-06
2.335211995e-02
5.782291045e-02
8.119244155e-02
1.896773579e-11
2.236955065e-11
3.050110314e-11
4.780651745e-11
8.635440020e-11
1.816151789e-10
4.521734510e-10
1.346230055e-09
4.615694753e-09
1.587843439e-08
4.625657991e-08
1.084281177e-07
2.137260307e-07
3.758724268e-07
6.237208012e-07
1.067524114e-06
4.442443156e-06
3.165842544e-02
6.379919975e-02
8.361226301e-02
2.715869129e-11
3.215907317e-11
4.421877666e-11
7.027630707e-11
1.296229001e-10
2.806005233e-10
7.229429857e-10
2.208156462e-09
7.458809669e-09
2.378102299e-08
6.280679765e-08
1.361231997e-07
2.545917563e-07
4.336064445e-07
7.103573832e-07
1.256865625e-06
3.017143245e-03
3.892484495e-02
6.872099740e-02
8.513431053e-02
3.861054062e-11
4.591125712e-11
6.367694578e-11
1.026448796e-10
1.933168103e-10
4.301195325e-10
1.140153800e-09
3.520790054e-09
1.146379067e-08
3.361381242e-08
8.139313334e-08
1.653993250e-07
2.965179115e-07
4.925423328e-07
8.021118835e-07
1.507326623e-06
1.052878280e-02
4.524650728e-02
7.273565032e-02
8.595071953e-02
5.455843060e-11
6.515426868e-11
9.116705947e-11
1.490625361e-10
2.864877594e-10
6.533937721e-10
1.767828201e-09
5.430491276e-09
1.676361980e-08
4.522546066e-08
1.016170211e-07
1.958123601e-07
3.391459349e-07
5.525817282e-07
9.005034918e-07
1.881403091e-06
1.736309998e-02
5.072687470e-02
7.597727005e-02
8.622879004e-02
7.669393596e-11
9.198930124e-11
1.298616159e-10
2.153163392e-10
4.217668970e-10
9.820530979e-10
2.685827021e-09
8.077285759e-09
2.340141551e-08
5.839946398e-08
1.231181881e-07
2.270067253e-07
3.822175494e-07
6.137497376e-07
1.007814276e-06
2.570465042e-06
2.352085712e-02
5.546667931e-02
7.856643562e-02
8.610893917e-02
1.073280437e-10
1.292955997e-10
1.841269082e-10
3.093896527e-10
6.164123607e-10
1.457403710e-09
3.985453471e-09
1.157371598e-08
3.134124984e-08
7.289927305e-08
1.455878473e-07
2.587058434e-07
4.255572336e-07
6.761844594e-07
1.127466904e-06
4.608308824e-06
2.904067071e-02
5.955951597e-02
8.061023751e-02
8.570624638e-02
1.496053202e-10
1.809977709e-10
2.599235397e-10
4.421381345e-10
8.933844145e-10
2.130889666e-09
5.761421231e-09
1.599052322e-08
4.049199890e-08
8.849556330e-08
1.687702640e-07
2.906991740e-07
4.690566376e-07
7.401319323e-07
1.264709987e-06
5.430374730e-04
3.397565329e-02
6.309000050e-02
8.220268464e-02
8.511399242e-02
2.077805815e-10
2.524072756e-10
3.653007177e-10
6.280565940e-10
1.282243794e-09
3.062926636e-09
8.101664970e-09
2.135301092e-08
5.073210835e-08
1.049809069e-07
1.924588648e-07
3.228309380e-07
5.126623303e-07
8.059496655e-07
1.427936068e-06
5.598430897e-03
3.838291341e-02
6.613347310e-02
8.342514868e-02
8.440704772e-02
2.875658245e-10
3.506421386e-10
5.109748342e-10
8.860617030e-10
1.819633799e-09
4.319479896e-09
1.107774410e-08
2.764653197e-08
6.192909306e-08
1.221750652e-07
2.164901728e-07
3.549906719e-07
5.563655607e-07
8.741171394e-07
1.631409384e-06
1.030303205e-02
4.231847820e-02
6.875641749e-02
8.434716740e-02
8.364390204e-02
3.965510335e-10
4.851230815e-10
7.109621935e-10
1.240159580e-09
2.549157077e-09
5.967292389e-09
1.473845803e-08
3.482676709e-08
7.395220706e-08
1.399259912e-07
2.407371019e-07
3.871034689e-07
6.001949351e-07
9.452564343e-07
1.901533286e-06
1.463554027e-02
4.583482725e-02
7.101708497e-02
8.502736011e-02
8.286786722e-02
5.446870782e-10
6.681201469e-10
9.831972332e-10
1.719855049e-09
3.519752610e-09
8.068269046e-09
1.910792688e-08
4.283072725e-08
8.667987901e-08
1.581075953e-07
2.651034180e-07
4.191237178e-07
6.442104832e-07
1.020165897e-06
2.293544352e-06
1.861462859e-02
4.897995733e-02
7.296617546e-02
8.551457464e-02
8.210875822e-02
7.448084157e-10
9.153055792e-10
1.350029864e-09
2.360231787e-09
4.783260928e-09
1.067434253e-08
2.418754436e-08
5.158607444e-08
1.000032329e-07
1.766172337e-07
2.895173133e-07
4.510290527e-07
6.885006392e-07
1.099870933e-06
2.946781138e-06
2.226515382e-02
5.179703853e-02
7.464768952e-02
8.584906814e-02
8.138530872e-02
1.013133555e-09
1.246228742e-09
1.838523486e-09
3.200992365e-09
6.391140433e-09
1.382393797e-08
2.996027997e-08
6.101790590e-08
1.138270865e-07
1.953726475e-07
3.139278792e-07
4.828155646e-07
7.331795966e-07
1.185702303e-06
4.347965873e-06
2.561407801e-02
5.432450077e-02
7.609964456e-02
8.606369115e-02
8.070803035e-02
1.369674716e-09
1.684625481e-09
2.480422705e-09
4.284919184e-09
8.390888173e-09
1.754050766e-08
3.639583504e-08
7.105330621e-08
1.280698624e-07
2.143084454e-07
3.383004176e-07
5.144945647e-07
7.783856351e-07
1.279412168e-06
1.020278670e-05
2.868821613e-02
5.659638406e-02
7.735475838e-02
8.618507734e-02
8.008174212e-02
1.838488513e-09
2.258562031e-09
3.311263433e-09
5.655716023e-09
1.082292820e-08
2.183308051e-08
4.345538611e-08
8.162401984e-08
1.426622843e-07
2.333738524e-07
3.626134598e-07
5.460894031e-07
8.242825656e-07
1.383359854e-06
1.239981745e-03
3.151330352e-02
5.864272304e-02
7.844118412e-02
8.623464351e-02
7.950751800e-02
2.447672904e-09
2.999848597e-09
4.369136829e-09
7.355443274e-09
1.371836286e-08
2.669808683e-08
5.109561142e-08
9.266768773e-08
1.575465019e-07
2.525299148e-07
3.868564091e-07
5.776334827e-07
8.710603163e-07
1.500803326e-06
4.261220159e-03
3.411329376e-02
6.048990963e-02
7.938305489e-02
8.622952765e-02
7.898415437e-02
3.228673544e-09
3.943098697e-09
5.692921022e-09
9.422018389e-09
1.709799322e-08
3.212194217e-08
5.927178220e-08
1.041284406e-07
1.726743195e-07
2.717472604e-07
4.110266931e-07
6.091687056e-07
9.189389919e-07
1.636384314e-06
7.118226756e-03
3.651019811e-02
6.216112764e-02
8.020096778e-02
8.618336102e-02
7.850927072e-02
4.215335039e-09
5.124363043e-09
7.320217749e-09
1.188716577e-08
2.097243484e-08
3.808380801e-08
6.793960706e-08
1.159570207e-07
1.880059779e-07
2.910051447e-07
4.351293437e-07
6.407440846e-07
9.681726618e-07
1.796976233e-06
9.811018037e-03
3.872401156e-02
6.367668126e-02
8.091253479e-02
8.610693577e-02
7.807989516e-02
5.442504008e-09
6.579397894e-09
9.285312365e-09
1.477506449e-08
2.534313274e-08
4.455787673e-08
7.705671438e-08
1.281101726e-07
2.035091567e-07
3.102889665e-07
4.591744034e-07
6.724149979e-07
1.019056178e-06
1.993241260e-06
1.234839735e-02
4.077284667e-02
6.505442164e-02
8.153287169e-02
8.600872718e-02
7.769227454e-02
6.944392108e-09
8.341829266e-09
1.161746010e-08
1.810188453e-08
3.020378361e-08
5.151566788e-08
8.658349064e-08
1.405502585e-07
2.191576027e-07
3.295896303e-07
4.831762709e-07
7.042430499e-07
1.071932214e-06
2.242722237e-06
1.474031566e-02
4.267293809e-02
6.630995537e-02
8.207478868e-02
8.589537097e-02
7.734294043e-02
8.752847817e-09
1.044148947e-08
1.433972636e-08
2.187595976e-08
3.554209024e-08
5.892722897e-08
9.648324670e-08
1.532448611e-07
2.349303586e-07
3.489028795e-07
5.071535713e-07
7.362957529e-07
1.127204996e-06
2.576568774e-06
1.699696687e-02
4.443882970e-02
6.745697419e-02
8.254920693e-02
8.577203303e-02
7.702867019e-02
1.089584612e-08
1.290313182e-08
1.746842335e-08
2.609857261e-08
4.134127810e-08
6.676271371e-08
1.067227181e-07
1.661658687e-07
2.508106820e-07
3.682274968e-07
5.311273686e-07
7.686468471e-07
1.185354166e-06
3.056117840e-06
1.912824268e-02
4.608354611e-02
6.850743914e-02
8.296544272e-02
8.564270086e-02
7.674625466e-02
1.339641244e-08
1.574563414e-08
2.101315960e-08
3.076506230e-08
4.758160594e-08
7.499291130e-08
1.172716989e-07
1.792895608e-07
2.667858473e-07
3.875656494e-07
5.551217069e-07
8.013761116e-07
1.246955630e-06
3.821546596e-06
2.114361899e-02
4.761871475e-02
6.947188817e-02
8.333144967e-02
8.551043720e-02
7.649292224e-02
1.627188817e-08
1.898176750e-08
2.497737506e-08
3.586595014e-08
5.424151928e-08
8.358981923e-08
1.281030038e-07
1.925953967e-07
2.828463502e-07
4.069218667e-07
5.791629526e-07
8.345709210e-07
1.312709700e-06
5.278661124e-06
2.305205410e-02
4.905479187e-02
7.035965436e-02
8.365407461e-02
8.537743873e-02
7.626528905e-02
1.953385566e-08
2.261841266e-08
2.935903525e-08
4.138815252e-08
6.129865737e-08
9.252707634e-08
1.391925277e-07
2.060660690e-07
2.989847415e-07
4.263029179e-07
6.032791730e-07
8.683261514e-07
1.383478433e-06
9.275913035e-06
2.486177611e-02
5.040101881e-02
7.117885253e-02
8.393909730e-02
8.524537628e-02
7.606078432e-02
2.318832428e-08
2.665706354e-08
3.415174275e-08
4.731603286e-08
6.873041195e-08
1.017800789e-07
1.505185547e-07
2.196869906e-07
3.151965726e-07
4.457169160e-07
6.275007134e-07
9.027457767e-07
1.460339903e-06
6.040109709e-05
2.658049314e-02
5.166566764e-02
7.193658407e-02
8.419144261e-02
8.511554288e-02
7.587750985e-02
2.723628291e-08
3.109464500e-08
3.934548980e-08
5.363228904e-08
7.651462968e-08
1.113259138e-07
1.620619355e-07
2.334459166e-07
3.314790070e-07
4.651738139e-07
6.518597880e-07
9.379444373e-07
1.544663664e-06
1.661299419e-03
2.821519970e-02
5.285614086e-02
7.263915689e-02
8.441534152e-02
8.498879611e-02
7.571326607e-02
3.167446473e-08
3.592425597e-08
4.492770718e-08
6.031864400e-08
8.462975378e-08
1.211436833e-07
1.738058350e-07
2.473327232e-07
3.478309336e-07
4.846850220e-07
6.763906110e-07
9.740486099e-07
1.638220105e-06
3.501206086e-03
2.977234125e-02
5.397904658e-02
7.329213810e-02
8.461443108e-02
8.486570085e-02
7.556606679e-02
3.649600574e-08
4.113610805e-08
5.088396203e-08
6.735652685e-08
9.305532635e-08
1.312142090e-07
1.857352225e-07
2.613390458e-07
3.642526425e-07
5.042625921e-07
7.011294061e-07
1.011200020e-06
1.743350612e-06
5.283259641e-03
3.125787952e-02
5.504032351e-02
7.390044833e-02
8.479182730e-02
8.474662273e-02
7.543412557e-02
4.169136198e-08
4.671816590e-08
5.719874792e-08
7.472736836e-08
1.017719045e-07
1.415198893e-07
1.978370250e-07
2.754580193e-07
3.807454784e-07
5.239201335e-07
7.261144972e-07
1.049557442e-06
1.863214663e-06
7.006752289e-03
3.267715044e-02
5.604528133e-02
7.446841982e-02
8.495020444e-02
8.463174247e-02
7.531587090e-02
4.724894189e-08
5.265689929e-08
6.385574540e-08
8.241302522e-08
1.107613243e-07
1.520448102e-07
2.100996804e-07
2.896845349e-07
3.973125331e-07
5.436722180e-07
7.513870393e-07
1.089299790e-06
2.002199846e-06
8.673762864e-03
3.403511185e-02
5.699867021e-02
7.499989436e-02
8.509186031e-02
8.452119318e-02
7.521007534e-02
5.315570294e-08
5.893781510e-08
7.083863354e-08
9.039587756e-08
1.200066206e-07
1.627746887e-07
2.225132859e-07
3.040143487e-07
4.139572271e-07
5.635340318e-07
7.769907788e-07
1.130631932e-06
2.166587560e-06
1.028685187e-02
3.533626935e-02
5.790481014e-02
7.549837369e-02
8.521880867e-02
8.441482377e-02
7.511517395e-02
5.939765035e-08
6.554591142e-08
7.813101479e-08
9.865922787e-08
1.294920294e-07
1.736964382e-07
2.350691406e-07
3.184446745e-07
4.306840586e-07
5.835220313e-07
8.029727161e-07
1.173787909e-06
2.365728718e-06
1.184859368e-02
3.658470789e-02
5.876755626e-02
7.596689834e-02
8.533279466e-02
8.431243767e-02
7.502941604e-02
6.596037343e-08
7.246597776e-08
8.571708605e-08
1.071870492e-07
1.392029352e-07
1.847984138e-07
2.477597145e-07
3.329733629e-07
4.474986204e-07
6.036539520e-07
8.293827684e-07
1.219039180e-06
2.614177635e-06
1.336151632e-02
3.778411557e-02
5.959030579e-02
7.640806746e-02
8.543523363e-02
8.421405675e-02
7.495265679e-02
7.282929679e-08
7.968300869e-08
9.358130491e-08
1.159644771e-07
1.491259510e-07
1.960701420e-07
2.605787289e-07
3.475994525e-07
4.644068521e-07
6.239480038e-07
8.562758247e-07
1.266701135e-06
2.935964382e-06
1.482808018e-02
3.893788480e-02
6.037615572e-02
7.682430811e-02
8.552740179e-02
8.411952544e-02
7.488385032e-02
7.998993183e-08
8.718223023e-08
1.017089896e-07
1.249772617e-07
1.592488755e-07
2.075022606e-07
2.735206939e-07
3.623227160e-07
4.814156840e-07
6.444239106e-07
8.837108242e-07
1.317145906e-06
3.373838993e-06
1.625063728e-02
4.004908219e-02
6.112792655e-02
7.721775330e-02
8.561043358e-02
8.402860967e-02
7.482198374e-02
8.742811600e-08
9.494938208e-08
1.100860536e-07
1.342124451e-07
1.695603369e-07
2.190862957e-07
2.865813024e-07
3.771436781e-07
4.985327400e-07
6.651025121e-07
9.117518915e-07
1.370814618e-06
4.011956746e-06
1.763145396e-02
4.112059775e-02
6.184814828e-02
7.759033966e-02
8.568528625e-02
8.394107289e-02
7.476626771e-02
9.512999298e-08
1.029708053e-07
1.186991578e-07
1.436576857e-07
1.800501469e-07
2.308150637e-07
2.997568144e-07
3.920635037e-07
5.157662717e-07
6.860057431e-07
9.404695793e-07
1.428236678e-06
5.041876119e-06
1.897264645e-02
4.215496976e-02
6.253911999e-02
7.794378301e-02
8.575281671e-02
8.385669175e-02
7.471599976e-02
1.030824694e-07
1.112334212e-07
1.275358978e-07
1.533017835e-07
1.907090790e-07
2.426818756e-07
3.130444934e-07
4.070845013e-07
5.331254030e-07
7.071575290e-07
9.699420798e-07
1.490053043e-06
7.011736382e-06
2.027623004e-02
4.315458743e-02
6.320293443e-02
7.827960777e-02
8.581374154e-02
8.377524505e-02
7.467055786e-02
1.112728909e-07
1.197249042e-07
1.365846431e-07
1.631342993e-07
2.015284992e-07
2.546811454e-07
3.264421832e-07
4.222085984e-07
5.506194637e-07
7.285827707e-07
1.000254544e-06
1.557049314e-06
1.233962164e-05
2.154407509e-02
4.412161597e-02
6.384146667e-02
7.859922426e-02
8.586871427e-02
8.369651261e-02
7.462937206e-02
1.196893683e-07
1.284336836e-07
1.458343243e-07
1.731455565e-07
2.125009623e-07
2.668080779e-07
3.399482010e-07
4.374395202e-07
5.682592940e-07
7.503085139e-07
1.031503306e-06
1.630199717e-06
6.524521598e-05
2.277796848e-02
4.505803873e-02
6.445643484e-02
7.890384710e-02
8.591828682e-02
8.362027724e-02
7.459194158e-02
1.283205482e-07
1.373487821e-07
1.552749929e-07
1.833268913e-07
2.236196093e-07
2.790581764e-07
3.535620661e-07
4.527805146e-07
5.860558068e-07
7.723639462e-07
1.063794544e-06
1.710729257e-06
1.175623590e-03
2.397955768e-02
4.596565287e-02
6.504938799e-02
7.919460491e-02
8.596294883e-02
8.354632849e-02
7.455779808e-02
1.371558112e-07
1.464599083e-07
1.648970220e-07
1.936701516e-07
2.348783181e-07
2.914280534e-07
3.672831671e-07
4.682363369e-07
6.040211566e-07
7.947798735e-07
1.097248515e-06
1.800202785e-06
2.537205170e-03
2.515041416e-02
4.684616072e-02
6.562173800e-02
7.947249113e-02
8.600313862e-02
8.347447592e-02
7.452653078e-02
1.461853929e-07
1.557577010e-07
1.746920334e-07
2.041679795e-07
2.462715294e-07
3.039147045e-07
3.811120985e-07
4.838113888e-07
6.221680510e-07
8.175897561e-07
1.132000277e-06
1.900649808e-06
3.880922133e-03
2.629197776e-02
4.770108587e-02
6.617479699e-02
7.973842806e-02
8.603922607e-02
8.340453147e-02
7.449776825e-02
1.553998765e-07
1.652331616e-07
1.846518046e-07
2.148139469e-07
2.577947774e-07
3.165158148e-07
3.950493908e-07
4.995113764e-07
6.405102730e-07
8.408306941e-07
1.168203858e-06
2.014761349e-06
5.202221764e-03
2.740560415e-02
4.853182189e-02
6.670974148e-02
7.999322901e-02
8.607154961e-02
8.333631563e-02
7.447115949e-02
1.647906947e-07
1.748782670e-07
1.947690429e-07
2.256017636e-07
2.694435297e-07
3.292296162e-07
4.090967086e-07
5.153420635e-07
6.590624272e-07
8.645413838e-07
1.206035327e-06
2.146179008e-06
6.500665895e-03
2.849256805e-02
4.933969083e-02
6.722762657e-02
8.023764750e-02
8.610039892e-02
8.326965403e-02
7.444640814e-02
1.743499393e-07
1.846853278e-07
2.050371926e-07
2.365262010e-07
2.812142486e-07
3.420548013e-07
4.232555654e-07
5.313101815e-07
6.778405796e-07
8.887656206e-07
1.245695943e-06
2.299970508e-06
7.776390110e-03
2.955408096e-02
5.012589574e-02
6.772946040e-02
8.047234204e-02
8.612602464e-02
8.320439116e-02
7.442323716e-02
1.840701529e-07
1.946474899e-07
2.154500117e-07
2.475823764e-07
2.931039080e-07
3.549904184e-07
4.375285070e-07
5.474228840e-07
6.968611948e-07
9.135499168e-07
1.287418916e-06
2.483397155e-06
9.029793296e-03
3.059124203e-02
5.089155386e-02
6.821614877e-02
8.069793100e-02
8.614866362e-02
8.314038094e-02
7.440139179e-02
1.939446181e-07
2.047584480e-07
2.260020741e-07
2.587661772e-07
3.051100105e-07
3.680363386e-07
4.519183405e-07
5.636878323e-07
7.161428384e-07
9.389460515e-07
1.331475661e-06
2.707265809e-06
1.026125787e-02
3.160510659e-02
5.163764442e-02
6.868850405e-02
8.091497274e-02
8.616852103e-02
8.307748810e-02
7.438065641e-02
2.039669798e-07
2.150122497e-07
2.366883808e-07
2.700734773e-07
3.172301808e-07
3.811925700e-07
4.664281762e-07
5.801133808e-07
7.357048915e-07
9.650109671e-07
1.378184427e-06
2.988404407e-06
1.147128445e-02
3.259663976e-02
5.236516437e-02
6.914730156e-02
8.112395898e-02
8.618575544e-02
8.301558074e-02
7.436081218e-02
2.141316866e-07
2.254036632e-07
2.475043169e-07
2.815012396e-07
3.294630992e-07
3.944598406e-07
4.810618839e-07
5.967088474e-07
7.555681906e-07
9.918069967e-07
1.427919811e-06
3.354555038e-06
1.266035792e-02
3.356676857e-02
5.307496604e-02
6.959323554e-02
8.132537021e-02
8.620054447e-02
8.295453866e-02
7.434168282e-02
2.244334217e-07
2.359279628e-07
2.584459442e-07
2.930466995e-07
3.418075422e-07
4.078390469e-07
4.958235034e-07
6.134837955e-07
7.757556807e-07
1.019404026e-06
1.481128946e-06
3.854927679e-06
1.382895906e-02
3.451638224e-02
5.376787804e-02
7.002697330e-02
8.151961093e-02
8.621302833e-02
8.289424488e-02
7.432311146e-02
2.348675362e-07
2.465807845e-07
2.695098622e-07
3.047073145e-07
3.542624655e-07
4.213316146e-07
5.107179518e-07
6.304488250e-07
7.962920021e-07
1.047879083e-06
1.538347704e-06
4.585931391e-06
1.497759086e-02
3.544623741e-02
5.444464527e-02
7.044907315e-02
8.170706949e-02
8.622331248e-02
8.283460119e-02
7.430494536e-02
2.454296964e-07
2.573582825e-07
2.806928191e-07
3.164813667e-07
3.668278081e-07
4.349392980e-07
5.257503521e-07
6.476152597e-07
8.172031616e-07
1.077318483e-06
1.600225503e-06
5.765115289e-06
1.610673626e-02
3.635712532e-02
5.510598622e-02
7.086012213e-02
8.188809105e-02
8.623152353e-02
8.277550833e-02
7.428705217e-02
2.561163308e-07
2.682570313e-07
2.919921962e-07
3.283671091e-07
3.795034873e-07
4.486646308e-07
5.409265349e-07
6.649954789e-07
8.385185739e-07
1.107818912e-06
1.667557701e-06
8.005063523e-06
1.721686819e-02
3.724973843e-02
5.575254600e-02
7.126061222e-02
8.206301089e-02
8.623774617e-02
8.271688776e-02
7.426930909e-02
2.669238909e-07
2.792741296e-07
3.034058832e-07
3.403633605e-07
3.922897988e-07
4.625101393e-07
5.562525386e-07
6.826023039e-07
8.602692782e-07
1.139488541e-06
1.741330065e-06
1.391247755e-05
1.830849633e-02
3.812478102e-02
5.638494322e-02
7.165101686e-02
8.223210460e-02
8.624208376e-02
8.265864994e-02
7.425160846e-02
2.778494364e-07
2.904069510e-07
3.149318660e-07
3.524696542e-07
4.051876783e-07
4.764787880e-07
5.717352010e-07
7.004500856e-07
8.824891543e-07
1.172451158e-06
1.822780120e-06
6.203819573e-05
1.938204995e-02
3.898285731e-02
5.700373297e-02
7.203175594e-02
8.239565875e-02
8.624460194e-02
8.260071117e-02
7.423384594e-02
2.888904246e-07
3.016530992e-07
3.265685963e-07
3.646853448e-07
4.181984770e-07
4.905742750e-07
5.873819541e-07
7.185539639e-07
9.052161429e-07
1.206845807e-06
1.913478335e-06
9.581393337e-04
2.043800521e-02
3.982458667e-02
5.760946036e-02
7.240325828e-02
8.255390676e-02
8.624537220e-02
8.254300987e-02
7.421592910e-02
3.000445687e-07
3.130110949e-07
3.383151523e-07
3.770104850e-07
4.313235198e-07
5.048005496e-07
6.032008302e-07
7.369305113e-07
9.284902550e-07
1.242831748e-06
2.015465187e-06
2.129158008e-03
2.147676817e-02
4.065050990e-02
5.820261254e-02
7.276589840e-02
8.270708326e-02
8.624445861e-02
8.248547539e-02
7.419779232e-02
3.113100797e-07
3.244791868e-07
3.501705985e-07
3.894453714e-07
4.445646933e-07
5.191616965e-07
6.192003118e-07
7.555975062e-07
9.523569042e-07
1.280591416e-06
2.131421717e-06
3.295385602e-03
2.249878852e-02
4.146116722e-02
5.878367110e-02
7.311999871e-02
8.285540248e-02
8.624192316e-02
8.242805046e-02
7.417935212e-02
3.226854304e-07
3.360563925e-07
3.621346984e-07
4.019906891e-07
4.579245165e-07
5.336628514e-07
6.353898261e-07
7.745739862e-07
9.768653541e-07
1.320334968e-06
2.264963515e-06
4.450341926e-03
2.350448481e-02
4.225705171e-02
5.935304814e-02
7.346590686e-02
8.299904621e-02
8.623779562e-02
8.237067814e-02
7.416055776e-02
3.341696350e-07
3.477417242e-07
3.742071449e-07
4.146473920e-07
4.714054254e-07
5.483092031e-07
6.517791775e-07
7.938804300e-07
1.002069261e-06
1.362306273e-06
2.421077501e-06
5.592844779e-03
2.449424025e-02
4.303864895e-02
5.991116771e-02
7.380391013e-02
8.313820310e-02
8.623213955e-02
8.231331231e-02
7.414135734e-02
3.457615312e-07
3.595349146e-07
3.863881383e-07
4.274169553e-07
4.850104487e-07
5.631064780e-07
6.683794357e-07
8.135395780e-07
1.028029590e-06
1.406790116e-06
2.606852642e-06
6.722515606e-03
2.546846801e-02
4.380638355e-02
6.045840581e-02
7.413429723e-02
8.327303833e-02
8.622497984e-02
8.225590703e-02
7.412170111e-02
3.574608519e-07
3.714356493e-07
3.986785015e-07
4.403009069e-07
4.987433064e-07
5.780610276e-07
6.852020595e-07
8.335755841e-07
1.054812865e-06
1.454119462e-06
2.832724947e-06
7.839169117e-03
2.642752447e-02
4.456071549e-02
6.099513785e-02
7.445734815e-02
8.340369633e-02
8.621635979e-02
8.219841635e-02
7.410154667e-02
3.692674858e-07
3.834441732e-07
4.110789155e-07
4.533012383e-07
5.126075137e-07
5.931794129e-07
7.022597742e-07
8.540149546e-07
1.082493458e-06
1.504689536e-06
3.114712103e-06
8.942725798e-03
2.737175384e-02
4.530200211e-02
6.152168016e-02
7.477327245e-02
8.353032973e-02
8.620630901e-02
8.214080586e-02
7.408084140e-02
3.811812428e-07
3.955611233e-07
4.235904570e-07
4.664205155e-07
5.266071870e-07
6.084693583e-07
7.195657074e-07
8.748863551e-07
1.111154444e-06
1.558971050e-06
3.478749972e-06
1.003319960e-02
2.830153967e-02
4.603065673e-02
6.203836533e-02
7.508233711e-02
8.365305107e-02
8.619485530e-02
8.208302927e-02
7.405955297e-02
3.932027087e-07
4.077867977e-07
4.362148740e-07
4.796613492e-07
5.407473023e-07
6.239384727e-07
7.371347464e-07
8.962211701e-07
1.140888834e-06
1.617529735e-06
3.969770251e-06
1.111060931e-02
2.921719375e-02
4.674703239e-02
6.254548449e-02
7.538473115e-02
8.377200206e-02
8.618202082e-02
8.202505787e-02
7.403763891e-02
4.053326176e-07
4.201228166e-07
4.489539633e-07
4.930267131e-07
5.550328302e-07
6.395953767e-07
7.549825355e-07
9.180535477e-07
1.171801369e-06
1.681051895e-06
4.672897050e-06
1.217501166e-02
3.011903885e-02
4.745145879e-02
6.304332832e-02
7.568066570e-02
8.388727455e-02
8.616783261e-02
8.196685782e-02
7.401507666e-02
4.175717693e-07
4.325701369e-07
4.618097800e-07
5.065201223e-07
5.694691249e-07
6.554495278e-07
7.731258363e-07
9.404209591e-07
1.204011068e-06
1.750379539e-06
5.771022340e-06
1.322650351e-02
3.100741855e-02
4.814429385e-02
6.353216472e-02
7.597034253e-02
8.399899973e-02
8.615230952e-02
8.190839472e-02
7.399183477e-02
4.299217089e-07
4.451306796e-07
4.747847185e-07
5.201452935e-07
5.840621789e-07
6.715106366e-07
7.915833287e-07
9.633643873e-07
1.237651731e-06
1.826556426e-06
7.739229081e-06
1.426515413e-02
3.188261745e-02
4.882580518e-02
6.401224094e-02
7.625391620e-02
8.410725796e-02
8.613547039e-02
8.184964753e-02
7.396790582e-02
4.423839999e-07
4.578062930e-07
4.878818738e-07
5.339065702e-07
5.988185337e-07
6.877893788e-07
8.103746595e-07
9.869288568e-07
1.272876070e-06
1.910893040e-06
1.229623690e-05
1.529107481e-02
3.274492770e-02
4.949630163e-02
6.448379292e-02
7.653157571e-02
8.421214307e-02
8.611732750e-02
8.179059523e-02
7.394327009e-02
4.549602641e-07
4.705995249e-07
5.011039779e-07
5.478082693e-07
6.137454785e-07
7.042974765e-07
8.295211349e-07
1.011164502e-06
1.309859995e-06
2.005060453e-06
3.325856263e-05
1.630438930e-02
3.359461967e-02
5.015609720e-02
6.494706457e-02
7.680347088e-02
8.431374588e-02
8.609790156e-02
8.173121589e-02
7.391791104e-02
4.676529656e-07
4.835126336e-07
5.144548815e-07
5.618554494e-07
6.288500246e-07
7.210471559e-07
8.490461512e-07
1.036125966e-06
1.348804775e-06
2.111222761e-06
5.672839562e-04
1.730521259e-02
3.443199484e-02
5.080540854e-02
6.540225838e-02
7.706974183e-02
8.441213433e-02
8.607720135e-02
8.167149255e-02
7.389182633e-02
4.804647539e-07