/*--------------------------------*- C++ -*----------------------------------*\
| =========                 |                                                 |
| \\      /  F ield         | OpenFOAM: The Open Source CFD Toolbox           |
|  \\    /   O peration     | Version:  5.x                                   |
|   \\  /    A nd           | Web:      www.OpenFOAM.org                      |
|    \\/     M anipulation  |                                                 |
\*---------------------------------------------------------------------------*/
FoamFile
{
    version     2.0;
    format      ascii;
    class       volScalarField;
    location    "3.5";
    object       H2O2;
}
// * * * * * * * * * * * * * * * * * * * * * * * * * * * * * * * * * * * * * //

dimensions      [0 0 0 0 0 0 0];

internalField   nonuniform List<scalar>
51080
(
0.000000000e+00
0.000000000e+00
0.000000000e+00
0.000000000e+00
0.000000000e+00
0.000000000e+00
0.000000000e+00
0.000000000e+00
0.000000000e+00
0.000000000e+00
1.061339653e-45
4.490172824e-45
1.832282305e-44
9.638330399e-44
7.486501753e-43
8.704639928e-42
1.687609678e-40
7.181597664e-39
1.340539599e-36
4.617285709e-33
0.000000000e+00
0.000000000e+00
0.000000000e+00
0.000000000e+00
0.000000000e+00
0.000000000e+00
0.000000000e+00
0.000000000e+00
4.497385638e-46
1.582938874e-45
6.675461491e-45
2.750707256e-44
1.499946911e-43
1.257781003e-42
1.551664171e-41
3.195523971e-40
1.423928400e-38
2.170715183e-36
2.284659023e-33
5.416478873e-30
0.000000000e+00
0.000000000e+00
0.000000000e+00
0.000000000e+00
0.000000000e+00
0.000000000e+00
0.000000000e+00
6.601181549e-46
2.258568673e-45
9.459028420e-45
3.888740715e-44
2.091286297e-43
1.719785300e-42
2.021741900e-41
3.804225526e-40
1.444780448e-38
1.572474230e-36
7.640583789e-34
8.607561472e-31
2.129264201e-28
0.000000000e+00
0.000000000e+00
0.000000000e+00
0.000000000e+00
0.000000000e+00
3.523012438e-46
9.513656288e-46
3.025986329e-45
1.139076686e-44
5.057170243e-44
2.599884820e-43
2.046754380e-42
2.231979179e-41
3.663727591e-40
1.149365605e-38
8.862489469e-37
2.406571424e-34
1.657106115e-31
4.318301404e-29
2.205985855e-27
0.000000000e+00
0.000000000e+00
0.000000000e+00
0.000000000e+00
5.647066638e-46
1.423598916e-45
4.282696111e-45
1.552092849e-44
6.890139463e-44
3.067450970e-43
2.233764146e-42
2.200570915e-41
3.119668896e-40
8.011338075e-39
4.478928170e-37
7.394010622e-35
3.280442657e-32
9.233029012e-30
5.614328304e-28
1.239016680e-26
0.000000000e+00
3.239208321e-46
5.051742076e-46
9.574525987e-46
2.195545838e-45
6.093504339e-45
2.058454472e-44
8.568303747e-44
3.585775237e-43
2.304578160e-42
2.010777782e-41
2.448437307e-40
5.149249038e-39
2.134764129e-37
2.265358432e-35
6.490820191e-33
1.869694949e-30
1.455356337e-28
3.544173441e-27
5.161739908e-26
8.384817165e-46
1.087741995e-45
1.770987225e-45
3.571278548e-45
8.877241819e-45
2.721812632e-44
1.036552005e-43
3.997272625e-43
2.275886103e-42
1.739088551e-41
1.815515332e-40
3.132549192e-39
9.814106962e-38
6.971572534e-36
1.285325421e-33
3.430653362e-31
3.511246643e-29
1.040742301e-27
1.507716818e-26
1.912549016e-25
2.814067157e-45
3.736770785e-45
6.355608468e-45
1.364800125e-44
3.681558161e-44
1.249101346e-43
4.347911433e-43
2.161612865e-42
1.445666422e-41
1.294792347e-40
1.837195525e-39
4.417686504e-38
2.169925724e-36
2.581696887e-34
5.679180879e-32
7.427549943e-30
2.892429819e-28
4.678211161e-27
5.162737202e-26
7.481773397e-25
9.563200896e-45
1.299499702e-44
2.307843514e-44
5.274338807e-44
1.543048891e-43
4.705940707e-43
1.983791621e-42
1.141250750e-41
9.239835657e-41
1.064025436e-39
1.979152230e-38
6.897043226e-37
5.354260279e-35
8.725124768e-33
1.327117682e-30
7.157092785e-29
1.413938420e-27
1.590951105e-26
1.597963633e-25
4.465457718e-24
3.256771641e-44
4.523089938e-44
8.374104066e-44
2.033842968e-43
5.276152543e-43
1.856712615e-42
9.202976265e-42
6.322039552e-41
6.091882736e-40
8.916462451e-39
2.260352002e-37
1.167531089e-35
1.307225255e-33
1.990152785e-31
1.496461355e-29
3.914023102e-28
4.975642610e-27
4.571658714e-26
4.961392609e-25
3.199352042e-17
1.102946432e-43
1.554671355e-43
2.982839406e-43
6.326745929e-43
1.831939012e-42
7.681304725e-42
4.414980189e-41
3.503771006e-40
4.080949903e-39
7.706005531e-38
2.718640588e-36
2.015999750e-34
2.596520873e-32
2.541255601e-30
9.394187382e-29
1.472993524e-27
1.415631925e-26
1.196100223e-25
1.807923078e-24
1.588666215e-14
3.887714970e-43
5.176049601e-43
8.430631706e-43
1.979607058e-42
6.960973332e-42
3.258207608e-41
2.099899357e-40
1.940766585e-39
2.771279532e-38
6.856693977e-37
3.347996912e-35
3.176208738e-33
3.470963393e-31
1.856185606e-29
3.901226303e-28
4.318222994e-27
3.503019100e-26
3.029888634e-25
1.382888834e-23
3.538196578e-13
9.181274320e-43
1.274358348e-42
2.500809147e-42
6.959471733e-42
2.623793187e-41
1.354045281e-40
9.870363945e-40
1.073370425e-38
1.903421052e-37
6.199915833e-36
3.985236645e-34
3.979394281e-32
2.899596944e-30
8.755196325e-29
1.218059112e-27
1.066390343e-26
7.923251256e-26
7.957799568e-25
2.119835354e-16
3.178750009e-12
2.530274749e-42
3.815670709e-42
8.171725436e-42
2.400481811e-41
9.729438508e-41
5.534912001e-40
4.589411614e-39
5.925322549e-38
1.314510112e-36
5.541753746e-35
4.225005812e-33
3.563000660e-31
1.580323556e-29
3.005139124e-28
3.113094749e-27
2.334616305e-26
1.700955929e-25
2.439898251e-24
1.430826024e-14
1.709880157e-11
7.934660817e-42
1.207076232e-41
2.642967203e-41
8.150207933e-41
3.549443816e-40
2.229558416e-39
2.113296410e-38
3.259063660e-37
9.015903668e-36
4.688588443e-34
3.658336018e-32
2.213185152e-30
6.137687595e-29
8.205670903e-28
6.888508019e-27
4.692517579e-26
3.583090983e-25
1.329500742e-23
1.795776210e-13
6.557520458e-11
2.419798381e-41
3.730082552e-41
8.404115524e-41
2.722137243e-40
1.274831093e-39
8.862537268e-39
9.639668396e-38
1.777595919e-36
6.016830965e-35
3.561143785e-33
2.434135725e-31
9.875515798e-30
1.846700183e-28
1.895851346e-27
1.370600973e-26
8.882201181e-26
7.681470630e-25
2.968350261e-17
1.149008682e-12
1.977807178e-10
7.222390553e-41
1.130245277e-40
2.626773186e-40
8.947971836e-40
4.512685284e-39
3.479760541e-38
4.350503273e-37
9.530530893e-36
3.797723769e-34
2.304539376e-32
1.224650974e-30
3.362090131e-29
4.591583506e-28
3.866801740e-27
2.517786193e-26
1.614814876e-25
1.768261352e-24
2.622891089e-15
4.906563378e-12
4.988772325e-10
2.117522843e-40
3.366970709e-40
8.081296074e-40
2.898420272e-39
1.576304610e-38
1.350003929e-37
1.936415472e-36
4.956537959e-35
2.195436532e-33
1.224244801e-31
4.758166401e-30
9.262081991e-29
9.886123385e-28
7.171657392e-27
4.352380098e-26
2.867217469e-25
4.912124605e-24
2.898093730e-14
1.589062264e-11
1.096242380e-09
6.114729273e-40
9.883204168e-40
2.451568325e-39
9.265875439e-39
5.439041895e-38
5.171757781e-37
8.452927835e-36
2.457604864e-34
1.126702691e-32
5.270281429e-31
1.483850204e-29
2.166148066e-28
1.906074105e-27
1.235382810e-26
7.181499277e-26
5.051441945e-25
2.721622010e-23
1.650395926e-13
4.205334114e-11
2.158423122e-09
1.743004359e-39
2.864454041e-39
7.346721763e-39
2.927695801e-38
1.854911094e-37
1.952667285e-36
3.589642320e-35
1.139620433e-33
5.010852489e-32
1.855329412e-30
3.868540601e-29
4.461017370e-28
3.371449803e-27
2.007401115e-26
1.143580663e-25
8.986613608e-25
2.020040415e-17
6.437172579e-13
9.543712665e-11
3.883900206e-09
4.914071172e-39
8.212515367e-39
2.178387480e-38
9.152990897e-38
6.251223747e-37
7.241675883e-36
1.467743082e-34
4.851021017e-33
1.908547162e-31
5.460992419e-30
8.737818374e-29
8.314012259e-28
5.568935087e-27
3.112916586e-26
1.773081208e-25
1.652617805e-24
8.553886465e-16
1.945111584e-12
1.920132638e-10
6.476883268e-09
1.372607096e-38
2.332873754e-38
6.399264134e-38
2.833050258e-37
2.079548447e-36
2.625011538e-35
5.711093105e-34
1.865280698e-32
6.231025061e-31
1.380243623e-29
1.759916229e-28
1.431150856e-27
8.705193052e-27
4.648071480e-26
2.696750900e-25
3.267771264e-24
6.602224288e-15
4.879089448e-12
3.507568100e-10
1.010787192e-08
3.803820338e-38
6.574003216e-38
1.864027273e-37
8.680963903e-37
6.813971557e-36
9.241622558e-35
2.090724579e-33
6.412120652e-32
1.761907948e-30
3.073383667e-29
3.233166882e-28
2.310683247e-27
1.300857030e-26
6.729458033e-26
4.050306913e-25
7.592233564e-24
2.934212119e-14
1.061677479e-11
5.921310518e-10
1.486001154e-08
1.046922258e-37
1.839322114e-37
5.385676560e-37
2.631124897e-36
2.192043726e-35
3.136713839e-34
7.123487636e-33
1.963735626e-31
4.382451436e-30
6.165426278e-29
5.513355998e-28
3.540653428e-27
1.872975122e-26
9.499707060e-26
6.045428720e-25
2.859732934e-23
9.550008184e-14
2.065611354e-11
9.362458785e-10
2.067387430e-08
2.863475201e-37
5.111227789e-37
1.542984335e-36
7.874881746e-36
6.893821911e-35
1.018627866e-33
2.239854076e-32
5.372557673e-31
9.753730091e-30
1.135099616e-28
8.846170471e-28
5.195997320e-27
2.614378265e-26
1.313513657e-25
9.026732932e-25
4.089078180e-19
2.520528933e-13
3.672761448e-11
1.401009256e-09
2.732001834e-08
7.784098094e-37
1.410401307e-36
4.379114510e-36
2.321530448e-35
2.108685054e-34
3.141799999e-33
6.466653628e-32
1.322720077e-30
1.974440232e-29
1.946889491e-28
1.349751776e-27
7.355334136e-27
3.555366155e-26
1.785638008e-25
1.358680389e-24
1.050156914e-16
5.706150427e-13
6.066166366e-11
2.000491638e-09
3.443085309e-08
2.102185644e-36
3.861464828e-36
1.229048409e-35
6.718627395e-35
6.238741732e-34
9.141827367e-33
1.711955040e-31
2.959615239e-30
3.688639402e-29
3.148535526e-28
1.974896014e-27
1.010085511e-26
4.729529941e-26
2.394313397e-25
2.082076409e-24
7.680157934e-16
1.148090837e-12
9.424472381e-11
2.743739719e-09
4.159052672e-08
5.634280344e-36
1.047412850e-35
3.402934872e-35
1.901124161e-34
1.775767687e-33
2.496638368e-32
4.164154543e-31
6.083792713e-30
6.439538753e-29
4.847587278e-28
2.789446099e-27
1.351846269e-26
6.174431147e-26
3.175502572e-25
3.296299774e-24
3.036023396e-15
2.103640341e-12
1.390878587e-10
3.634077691e-09
4.843619536e-08
1.496224378e-35
2.808803537e-35
9.266100451e-35
5.236433196e-34
4.836565738e-33
6.380111544e-32
9.348750080e-31
1.161153892e-29
1.061574874e-28
7.160782358e-28
3.823878203e-27
1.769839008e-26
7.932437223e-26
4.176163691e-25
5.527660837e-24
8.878037621e-15
3.572717535e-12
1.965217221e-10
4.668972991e-09
5.471855970e-08
3.928020152e-35
7.426443447e-35
2.472401121e-34
1.397878283e-33
1.254672404e-32
1.524360426e-31
1.949108077e-30
2.077911428e-29
1.666942074e-28
1.021267673e-27
5.109659755e-27
2.273604503e-26
1.005182487e-25
5.458639439e-25
1.033002262e-23
2.146983303e-14
5.699381955e-12
2.675308159e-10
5.840387163e-09
6.030987834e-08
1.016604460e-34
1.929690414e-34
6.439209548e-34
3.600453127e-33
3.089303106e-32
3.409123597e-31
3.799821210e-30
3.516858447e-29
2.511167397e-28
1.413467991e-27
6.679359238e-27
2.873309316e-26
1.258810834e-25
7.107298226e-25
2.461077297e-23
4.538838356e-14
8.628197812e-12
3.527228054e-10
7.135437906e-09
6.517780770e-08
2.585357487e-34
4.910043620e-34
1.630686224e-33
8.910590649e-33
7.205037197e-32
7.156436834e-31
6.975513949e-30
5.672119093e-29
3.650807677e-28
1.906438276e-27
8.566762177e-27
3.579890638e-26
1.560565020e-25
9.238734381e-25
1.374155840e-22
8.668361857e-14
1.249689936e-11
4.523282896e-10
8.537503868e-09
6.935180030e-08
6.438373148e-34
1.219110989e-33
3.999414543e-33
2.111838787e-32
1.590780351e-31
1.415592604e-30
1.213905297e-29
8.774090530e-29
5.147430300e-28
2.514545102e-27
1.080711055e-26
4.405209411e-26
1.917979520e-25
1.201819437e-24
2.340189242e-18
1.528286785e-13
1.743057560e-11
5.662349686e-10
1.002737300e-08
7.289495814e-08
1.564671956e-33
2.942659510e-33
9.465203190e-33
4.781842085e-32
3.327493661e-31
2.650515472e-30
2.014980720e-29
1.308908206e-28
7.067328558e-28
3.252768478e-27
1.343742153e-26
5.362241278e-26
2.339937099e-25
1.568680558e-24
4.700590566e-17
2.525635528e-13
2.353748218e-11
6.940327550e-10
1.158451987e-08
7.588336106e-08
3.697373291e-33
6.880612465e-33
2.155102081e-32
1.033159398e-31
6.606543362e-31
4.720027124e-30
3.208099014e-29
1.891861978e-28
9.481268823e-28
4.136731758e-27
1.649674771e-26
6.465293500e-26
2.837010629e-25
2.060897010e-24
2.124315018e-16
3.956697194e-13
3.090688205e-11
8.350603592e-10
1.318802731e-08
7.839376867e-08
8.467022843e-33
1.553698101e-32
4.710468544e-32
2.129661516e-31
1.248389027e-30
8.032290171e-30
4.923188351e-29
2.659872245e-28
1.246438452e-27
5.182803813e-27
2.002673143e-26
7.730240570e-26
3.421872347e-25
2.735961345e-24
6.256143628e-16
5.927056848e-13
3.960809179e-11
9.884686838e-10
1.481759409e-08
8.049741191e-08
1.873678330e-32
3.379960300e-32
9.871232801e-32
4.191606797e-31
2.252360597e-30
1.312119515e-29
7.313644249e-29
3.649901365e-28
1.609621873e-27
6.408138517e-27
2.407188474e-26
9.174802259e-26
4.109851146e-25
3.689583233e-24
1.479235068e-15
8.547492154e-13
4.969164228e-11
1.153304569e-09
1.645507542e-08
8.226068333e-08
3.997965811e-32
7.072247230e-32
1.982631102e-31
7.890050671e-31
3.893516799e-30
2.066179015e-29
1.055689540e-28
4.902214334e-28
2.046077708e-27
7.830800655e-27
2.868010421e-26
1.081888363e-25
4.919613447e-25
5.092425250e-24
3.043951632e-15
1.193143907e-12
6.119036667e-11
1.328525983e-09
1.808400372e-08
8.373917365e-08
8.213797422e-32
1.422204943e-31
3.818505090e-31
1.423511122e-30
6.471335331e-30
3.148290374e-29
1.485466032e-28
6.460363495e-28
2.564675123e-27
9.469917767e-27
3.390334712e-26
1.268494633e-25
5.874143978e-25
7.277748532e-24
5.678666264e-15
1.619290858e-12
7.412181277e-11
1.513057274e-09
1.969019184e-08
8.497947470e-08
1.623798911e-31
2.748724068e-31
7.060678388e-31
2.467967701e-30
1.037734580e-29
4.657828927e-29
2.043328911e-28
8.371145591e-28
3.174769603e-27
1.134573342e-26
3.979798241e-26
1.479846689e-25
7.001985929e-25
1.098340075e-23
9.838302289e-15
2.144486281e-12
8.848994876e-11
1.705831892e-09
2.126197184e-08
8.602149422e-08
3.089263215e-31
5.109439307e-31
1.255608751e-30
4.123044255e-30
1.610781257e-29
6.711502418e-29
2.754379538e-28
1.068472118e-27
3.886254728e-27
1.347983457e-26
4.642565803e-26
1.718841672e-25
8.338968336e-25
1.817446902e-23
1.607948948e-14
2.779793393e-12
1.042884443e-10
1.905809391e-09
2.278971511e-08
8.689709150e-08
5.660281683e-31
9.146303588e-31
2.151948968e-30
6.656105764e-30
2.427518076e-29
9.444039241e-29
3.646202370e-28
1.345457151e-27
4.709600330e-27
1.589527458e-26
5.385396271e-26
1.988796147e-25
9.930605110e-25
3.592445417e-23
2.506442738e-14
3.536009158e-12
1.215049852e-10
2.112070698e-09
2.426781151e-08
8.763711527e-08
1.000087854e-30
1.579391319e-30
3.562743286e-30
1.041235935e-29
3.561830538e-29
1.300878880e-28
4.748911331e-28
1.673767858e-27
5.655861152e-27
1.861678304e-26
6.215709048e-26
2.293512902e-25
1.183543846e-24
1.108462038e-22
3.756228375e-14
4.423553515e-12
1.401204631e-10
2.323735085e-09
2.569172669e-08
8.826400704e-08
1.706773802e-30
2.636132002e-30
5.711668352e-30
1.582545509e-29
5.101106295e-29
1.757818352e-28
6.095139092e-28
2.059464627e-27
6.736803121e-27
2.167088019e-26
7.141699105e-26
2.637375388e-25
1.412989822e-24
4.437092330e-21
5.445111035e-14
5.452495693e-12
1.601108093e-10
2.539979727e-09
2.705786043e-08
8.879492628e-08
2.818914951e-30
4.261968386e-30
8.888175176e-30
2.342731304e-29
7.147023757e-29
2.334407922e-28
7.720115749e-28
2.508985373e-27
7.964909776e-27
2.508619952e-26
8.172424765e-26
3.025455592e-25
1.691545368e-24
4.398881089e-18
7.671641724e-14
6.632574382e-12
1.814509761e-10
2.760081525e-09
2.836477781e-08
8.924575531e-08
4.514913737e-30
6.689195435e-30
1.345707660e-29
3.385698927e-29
9.816157184e-29
3.051832357e-28
9.661735113e-28
3.029170092e-27
9.353471935e-27
2.889370642e-26
9.317936083e-26
3.463644394e-25
2.032928775e-24
2.704267552e-17
1.054518122e-13
7.973210119e-12
2.041156931e-10
2.983417508e-09
2.961236264e-08
8.962971388e-08
7.027312844e-30
1.021428568e-29
1.986752746e-29
4.786884384e-29
1.324061715e-28
3.933304303e-28
1.196058120e-27
3.627279790e-27
1.091665444e-26
3.312682472e-26
1.058939566e-25
3.958824390e-25
2.456130285e-24
8.369135230e-17
1.418598401e-13
9.483587299e-12
2.280804203e-10
3.209453654e-09
3.080164554e-08
8.995745840e-08
1.065140310e-29
1.520649721e-29
2.866155403e-29
6.633944942e-29
1.756848667e-28
5.004097815e-28
1.466006860e-27
4.311020033e-27
1.266955924e-26
3.782191782e-26
1.199923324e-25
4.519070105e-25
2.988080432e-24
1.966715202e-16
1.872481430e-13
1.117269489e-11
2.533219706e-10
3.437738709e-09
3.193407606e-08
9.023814204e-08
1.575349622e-29
2.211612850e-29
4.048135080e-29
9.027411411e-29
2.296436625e-28
6.291610691e-28
1.780650645e-27
5.088595980e-27
1.462841196e-26
4.301853444e-26
1.356135598e-25
5.153886171e-25
3.668188847e-24
3.964480661e-16
2.430339733e-13
1.304932332e-11
2.798177043e-10
3.667839275e-09
3.301095918e-08
9.047706383e-08
2.277876269e-29
3.148215289e-29
5.607679154e-29
1.208121302e-28
2.960977810e-28
7.825435098e-28
2.144929260e-27
5.968709506e-27
1.681051818e-26
4.875961859e-26
1.529131634e-25
5.874566802e-25
4.556229974e-24
7.231880169e-16
3.107426968e-13
1.512230436e-11
3.075552560e-10
3.899563138e-09
3.403649037e-08
9.068394524e-08
3.225850125e-29
4.393926618e-29
7.631100228e-29
1.592328436e-28
3.770360512e-28
9.637373881e-28
2.564098734e-27
6.960638135e-27
1.923445973e-26
5.509213798e-26
1.720659008e-25
6.694562089e-25
5.747068233e-24
1.228392353e-15
3.920084287e-13
1.740047904e-11
3.365231554e-10
4.132758716e-09
3.501429974e-08
9.086423787e-08
4.481705655e-29
6.022417871e-29
1.021670975e-28
2.069589666e-28
4.746250938e-28
1.176156203e-27
3.043749187e-27
8.074232086e-27
2.192024838e-26
6.206750905e-26
1.932676539e-25
7.630029933e-25
7.399624636e-24
1.976614147e-15
4.885727821e-13
1.989247955e-11
3.667049317e-10
4.367134086e-09
3.594550686e-08
9.101904858e-08
6.117794379e-29
8.118176210e-29
1.347518946e-28
2.655633603e-28
5.912153140e-28
1.423452400e-27
3.589831190e-27
9.320006442e-27
2.488934682e-26
6.974186038e-26
2.167404902e-25
8.700482775e-25
9.799647727e-24
3.047261189e-15
6.022902605e-13
2.260708108e-11
3.980942775e-10
4.602537105e-09
3.683280419e-08
9.115259971e-08
8.216950602e-29
1.077699816e-28
1.753023524e-28
3.367700911e-28
7.293469538e-28
1.709527756e-27
4.208663416e-27
1.070916713e-26
2.816492348e-26
7.817687238e-26
2.427348270e-25
9.929715233e-25
1.351025224e-23
4.536472138e-15
7.351249168e-13
2.555325103e-11
4.306860789e-10
4.838911316e-09
3.767951939e-08
9.126845720e-08
1.087302554e-28
1.410651470e-28
2.251888074e-28
4.224635641e-28
8.917518338e-28
2.038539696e-27
4.906975986e-27
1.225367423e-26
3.177197794e-26
8.744031850e-26
2.715347170e-25
1.134696286e-24
1.979004792e-23
6.559087770e-15
8.891695306e-13
2.874007740e-11
4.644815742e-10
5.076225072e-09
3.848871891e-08
9.136926980e-08
1.419130608e-28
1.822666196e-28
2.859196474e-28
5.246880275e-28
1.081365517e-27
2.414927284e-27
5.691912539e-27
1.396629687e-26
3.573750921e-26
9.760667316e-26
3.034633739e-25
1.298850432e-24
3.201895294e-23
9.250651749e-15
1.066623015e-12
3.217688039e-11
4.994842425e-10
5.314496434e-09
3.926322729e-08
9.145723228e-08
1.828911357e-28
2.327007086e-28
3.591469388e-28
6.456575816e-28
1.301333202e-27
2.843403377e-27
6.571085802e-27
1.586075400e-26
4.009075940e-26
1.087583352e-25
3.388907255e-25
1.489981868e-24
6.239920761e-23
1.276954615e-14
1.269818680e-12
3.587330804e-11
5.356997688e-10
5.553739399e-09
4.000583386e-08
9.153423863e-08
2.329608029e-28
2.938256859e-28
4.466701013e-28
7.877581753e-28
1.555010724e-27
3.328991362e-27
7.552587487e-27
1.795159660e-26
4.486329678e-26
1.209860012e-25
3.782385748e-25
1.713861409e-24
1.898438085e-22
1.729908753e-14
1.501211966e-12
3.983917556e-11
5.731416108e-10
5.794032110e-09
4.071916605e-08
9.160182528e-08
2.935471063e-28
3.672363269e-28
5.504382144e-28
9.535534043e-28
1.845987608e-27
3.877035885e-27
8.645016854e-27
2.025458850e-26
5.008957738e-26
1.343902748e-25
4.219939848e-25
1.977908805e-24
5.059091401e-21
2.304996175e-14
1.763394092e-12
4.408470088e-11
6.118203762e-10
6.035442708e-09
4.140554071e-08
9.166139888e-08
3.662065340e-28
4.546668284e-28
6.725608127e-28
1.145795463e-27
2.178085886e-27
4.493199548e-27
9.857583135e-27
2.278648199e-26
5.580682895e-26
1.490828758e-25
4.707169699e-25
2.291800979e-24
1.974749103e-18
3.026228661e-14
2.059081532e-12
4.862032510e-11
6.517542109e-10
6.278072576e-09
4.206734929e-08
9.171409157e-08
4.526323642e-28
5.579956338e-28
8.153042482e-28
1.367425101e-27
2.555375558e-27
5.183522598e-27
1.120003577e-26
2.556542234e-26
6.205570116e-26
1.651874158e-25
5.250579280e-25
2.668389862e-24
1.173531693e-17
3.920845627e-14
2.391152447e-12
5.345686610e-11
6.929607566e-10
6.522039995e-09
4.270670635e-08
9.176091100e-08
5.546610697e-28
6.792537214e-28
9.811103834e-28
1.621584035e-27
2.982181678e-27
5.954416267e-27
1.268284039e-26
2.861075213e-26
6.888037276e-26
1.828417384e-25
5.857720423e-25
3.125050726e-24
3.476419045e-17
5.019510652e-14
2.762616696e-12
5.860574590e-11
7.354637686e-10
6.767463492e-09
4.332564317e-08
9.180278204e-08
6.742716946e-28
8.206230013e-28
1.172586694e-27
1.911629720e-27
3.463121402e-27
6.812701536e-27
1.431710091e-26
3.194343437e-26
7.632909913e-26
2.022004381e-25
6.537445596e-25
3.685842387e-24
7.843683777e-17
6.356598065e-14
3.176627425e-12
6.407864986e-11
7.792871071e-10
7.014489714e-09
4.392597263e-08
9.184042995e-08
8.135963483e-28
9.844503478e-28
1.392525797e-27
2.241125255e-27
4.003074718e-27
7.765635581e-27
1.611475421e-26
3.558594669e-26
8.445453851e-26
2.234349128e-25
7.300157696e-25
4.384917970e-24
1.525797370e-16
7.970469137e-14
3.636516104e-12
6.988736816e-11
8.244594488e-10
7.263258543e-09
4.450946678e-08
9.187453443e-08
9.749243334e-28
1.173244643e-27
1.643911790e-27
2.613875387e-27
4.607245228e-27
8.820935395e-27
1.808847992e-26
3.956262157e-26
9.331451774e-26
2.467389006e-25
8.158125031e-25
5.272342198e-24
2.699778460e-16
9.903769871e-14
4.145770601e-12
7.604468692e-11
8.710080158e-10
7.513902931e-09
4.507770483e-08
9.190568272e-08
1.160704964e-27
1.389691515e-27
1.929919201e-27
3.033918879e-27
5.281160620e-27
9.986801028e-27
2.025191336e-26
4.389970376e-26
1.029720059e-25
2.723287819e-25
9.125956275e-25
6.424162015e-24
4.469599226e-16
1.220362712e-13
4.708053751e-12
8.256361748e-11
9.189662327e-10
7.766598071e-09
4.563225949e-08
9.193436809e-08
1.373559309e-27
1.636657737e-27
2.253934803e-27
3.505558433e-27
6.030697697e-27
1.127199752e-26
2.261963835e-26
4.862553278e-26
1.134966078e-25
3.004490597e-25
1.022112707e-24
7.961198919e-24
7.040162442e-16
1.492205629e-13
5.327154887e-12
8.945736177e-11
9.683679312e-10
8.021508945e-09
4.617436757e-08
9.196103420e-08
1.616279855e-27
1.917192917e-27
2.619558304e-27
4.033340967e-27
6.862076655e-27
1.268583225e-26
2.520724456e-26
5.377079572e-26
1.249644541e-25
3.313763037e-25
1.146472112e-24
1.008635295e-23
1.066530346e-15
1.811613938e-13
6.007129897e-12
9.674004876e-11
1.019247181e-09
8.278769459e-09
4.670532959e-08
9.198606627e-08
1.891849576e-27
2.234548489e-27
3.030611173e-27
4.622122817e-27
7.781949993e-27
1.423826113e-26
2.803151902e-26
5.936884823e-26
1.374594778e-25
3.654226828e-25
1.288229166e-24
1.316485974e-23
1.565536192e-15
2.184848430e-13
6.752143853e-12
1.044259987e-10
1.071645719e-09
8.538575794e-09
4.722634895e-08
9.200981539e-08
2.203436271e-27
2.592183365e-27
3.491160830e-27
5.277054213e-27
8.797368081e-27
1.593987668e-26
3.111041452e-26
6.545571669e-26
1.510743702e-25
4.029445942e-25
1.450520200e-24
1.791699081e-23
2.238564132e-15
2.618760524e-13
7.566607780e-12
1.125305851e-10
1.125600533e-09
8.801094980e-09
4.773841024e-08
9.203258204e-08
2.554414137e-27
2.993769684e-27
4.005529886e-27
6.003590556e-27
9.915805974e-27
1.780199446e-26
3.446332049e-26
7.207064624e-26
1.659117030e-25
4.443474015e-25
1.637218861e-24
2.595111873e-23
3.130576207e-15
3.120769442e-13
8.455093320e-12
1.210685677e-10
1.181154180e-09
9.066454146e-09
4.824255168e-08
9.205458777e-08
2.948363466e-27
3.443209394e-27
4.578294721e-27
6.807551916e-27
1.114526685e-26
1.983669452e-26
3.811103787e-26
7.925630225e-26
1.820842905e-25
4.900953862e-25
1.853169767e-24
4.156707087e-23
4.294938046e-15
3.698987970e-13
9.422431159e-12
1.300567397e-10
1.238348306e-09
9.334853032e-09
4.873960183e-08
9.207608218e-08
3.389099755e-27
3.944645634e-27
5.214323212e-27
7.695089658e-27
1.249423648e-26
2.205694996e-26
4.207600643e-26
8.705921740e-26
1.997183910e-25
5.407215299e-25
2.104488609e-24
8.009222320e-23
5.794503549e-15
4.362168794e-13
1.047360906e-11
1.395113954e-10
1.297233046e-09
9.606419558e-09
4.923037627e-08
9.209727864e-08
3.880657796e-27
4.502480140e-27
5.918789539e-27
8.672750533e-27
1.397174507e-26
2.447658034e-26
4.638234936e-26
9.552994439e-26
2.189535315e-25
5.968395028e-25
2.399018166e-24
2.368621269e-22
7.702848226e-15
5.119831578e-13
1.161389047e-11
1.494497759e-10
1.357849743e-09
9.881354717e-09
4.971559524e-08
9.211834540e-08
4.427327000e-27
5.121379656e-27
6.697167758e-27
9.747523845e-27
1.558744554e-26
2.711038117e-26
5.105615159e-26
1.047239246e-25
2.399450336e-25
6.591629027e-25
2.746947162e-24
4.512993433e-21
1.010532077e-14
5.982192462e-13
1.284870293e-11
1.598891823e-10
1.420251738e-09
1.015980526e-08
5.019601319e-08
9.213943933e-08
5.033661389e-27
5.806285372e-27
7.555275523e-27
1.092678977e-26
1.735164776e-26
2.997426981e-26
5.612561654e-26
1.147016942e-25
2.628673854e-25
7.285182666e-25
3.161706949e-24
1.244251550e-18
1.310059528e-14
6.960319877e-13
1.418379106e-11
1.708486507e-10
1.484484577e-09
1.044191206e-08
5.067221601e-08
9.216067778e-08
5.704484221e-27
6.562476064e-27
8.499310453e-27
1.221843410e-26
1.927529171e-26
3.308529512e-26
6.162124182e-26
1.255296234e-25
2.879141641e-25
8.058731490e-25
3.661428150e-24
7.585977853e-18
1.680178974e-14
8.066058003e-13
1.562506552e-11
1.823472298e-10
1.550602889e-09
1.072786559e-08
5.114472632e-08
9.218218613e-08
6.444922680e-27
7.395513452e-27
9.535826821e-27
1.363083333e-26
2.137008750e-26
3.646169040e-26
6.757599591e-26
1.372805734e-25
3.153041141e-25
8.923642063e-25
4.271003712e-24
2.234524301e-17
2.133830614e-14
9.312166465e-13
1.717878219e-11
1.944036264e-10
1.618661427e-09
1.101784125e-08
5.161407446e-08
9.220403079e-08
7.260411398e-27
8.311331138e-27
1.067182317e-26
1.517291696e-26
2.364859473e-26
4.012319117e-26
7.402572214e-26
1.500344332e-25
3.452825784e-25
9.893341327e-25
5.025574264e-24
4.984259420e-17
2.685719553e-14
1.071228247e-12
1.885133272e-11
2.070388119e-10
1.688710666e-09
1.131191070e-08
5.208075349e-08
9.222633288e-08
8.156733972e-27
9.316201730e-27
1.191469709e-26
1.685418443e-26
2.612416030e-26
4.409093141e-26
8.100914516e-26
1.638790204e-25
3.781248656e-25
1.098378334e-24
5.976172750e-24
9.576172377e-17
3.352473448e-14
1.228105805e-12
2.064949192e-11
2.202732087e-10
1.760810697e-09
1.161031516e-08
5.254508037e-08
9.224911440e-08
9.139991372e-27
1.041682425e-26
1.327233420e-26
1.868478968e-26
2.881111423e-26
4.838769025e-26
8.856860601e-26
1.789116637e-25
4.141447925e-25
1.221408375e-24
7.199602649e-24
1.674389321e-16
4.152863405e-14
1.403404318e-12
2.258024226e-11
2.341285244e-10
1.835020507e-09
1.191314420e-08
5.300739486e-08
9.227242374e-08
1.021670696e-26
1.162027961e-26
1.475316367e-26
2.067552630e-26
3.172486433e-26
5.303803401e-26
9.674994879e-26
1.952393365e-25
4.536967759e-25
1.360722274e-24
8.816428131e-24
2.741861945e-16
5.107931312e-14
1.598800771e-12
2.465093660e-11
2.486277798e-10
1.911395477e-09
1.222055988e-08
5.346815494e-08
9.229631909e-08
1.139380309e-26
1.293412204e-26
1.636609888e-26
2.283792675e-26
3.488180431e-26
5.806837611e-26
1.056033451e-25
2.129807599e-25
4.971840190e-25
1.519115568e-24
1.102587706e-23
4.276593094e-16
6.241186229e-14
1.816058131e-12
2.686906392e-11
2.637923494e-10
1.990001380e-09
1.253270678e-08
5.392754767e-08
9.232078921e-08
1.267859343e-26
1.436639652e-26
1.812064366e-26
2.518435415e-26
3.829955976e-26
6.350746226e-26
1.151831243e-25
2.322673572e-25
5.450672260e-25
1.700013615e-24
1.417942942e-23
6.422778517e-16
7.578913425e-14
2.057075756e-12
2.924258607e-11
2.796475372e-10
2.070894559e-09
1.284971172e-08
5.438590517e-08
9.234594009e-08
1.407890565e-26
1.592558341e-26
2.002698160e-26
2.772797499e-26
4.199716924e-26
6.938611160e-26
1.255491388e-25
2.532452646e-25
5.978737305e-25
1.907650337e-24
1.895141697e-23
9.356745828e-16
9.150217684e-14
2.323858633e-12
3.177965433e-11
2.962164779e-10
2.154146755e-09
1.317174567e-08
5.484342126e-08
9.237170754e-08
1.560304856e-26
1.762084484e-26
2.209593312e-26
3.048287108e-26
4.599499596e-26
7.573782173e-26
1.367666216e-25
2.760769630e-25
6.562102156e-25
2.147319922e-24
2.678973322e-23
1.329209757e-15
1.098737443e-13
2.618535574e-12
3.448882240e-11
3.135247496e-10
2.239814864e-09
1.349893900e-08
5.530041109e-08
9.239819535e-08
1.725983743e-26
1.946180156e-26
2.433903864e-26
3.346415021e-26
5.031490527e-26
8.259897446e-26
1.489068944e-25
3.009439711e-25
7.207791388e-25
2.425717999e-24
4.134150882e-23
1.848546317e-15
1.312609442e-13
2.943382883e-12
3.737895862e-11
3.315990729e-10
2.327978285e-09
1.383143369e-08
5.575700095e-08
9.242529560e-08
1.905871795e-26
2.145881443e-26
2.676861638e-26
3.668797569e-26
5.498050930e-26
9.000883513e-26
1.620487096e-25
3.280489323e-25
7.923919767e-25
2.751423444e-24
7.435288793e-23
2.524231130e-15
1.560559893e-13
3.300774755e-12
4.045922222e-11
3.504646571e-10
2.418698367e-09
1.416932791e-08
5.621330753e-08
9.245304118e-08
2.100971865e-26
2.362286493e-26
2.939791628e-26
4.017173795e-26
6.001725590e-26
9.801013082e-26
1.762781751e-25
3.576191566e-25
8.719952899e-25
3.135586456e-24
1.846168850e-22
3.392402126e-15
1.846901652e-13
3.693250254e-12
4.373912637e-11
3.701504039e-10
2.512047983e-09
1.451279180e-08
5.666952797e-08
9.248143451e-08
2.312348905e-26
2.596574844e-26
3.224095071e-26
4.393398168e-26
6.545272167e-26
1.066494598e-25
1.916900575e-25
3.899106289e-25
9.607004612e-25
3.592958808e-24
1.300739916e-21
4.495523363e-15
2.176353758e-13
4.123513802e-12
4.722871734e-11
3.906842039e-10
2.608100355e-09
1.486193650e-08
5.712572925e-08
9.251040753e-08
2.541148182e-26
2.849994862e-26
3.531290218e-26
4.799472414e-26
7.131635156e-26
1.159773663e-25
2.083891571e-25
4.252110589e-25
1.059812826e-24
4.143422335e-24
4.033248544e-19
5.883143349e-15
2.554094313e-13
4.594359807e-12
5.093820401e-11
4.120945477e-10
2.706925061e-09
1.521685138e-08
5.758193622e-08
9.253996531e-08
2.788590891e-26