/*--------------------------------*- C++ -*----------------------------------*\
| =========                 |                                                 |
| \\      /  F ield         | OpenFOAM: The Open Source CFD Toolbox           |
|  \\    /   O peration     | Version:  5.x                                   |
|   \\  /    A nd           | Web:      www.OpenFOAM.org                      |
|    \\/     M anipulation  |                                                 |
\*---------------------------------------------------------------------------*/
FoamFile
{
    version     2.0;
    format      ascii;
    class       volScalarField;
    location    "3.5";
    object       HCCO;
}
// * * * * * * * * * * * * * * * * * * * * * * * * * * * * * * * * * * * * * //

dimensions      [0 0 0 0 0 0 0];

internalField   nonuniform List<scalar>
51080
(
0.000000000e+00
0.000000000e+00
0.000000000e+00
0.000000000e+00
0.000000000e+00
0.000000000e+00
0.000000000e+00
0.000000000e+00
0.000000000e+00
0.000000000e+00
1.341440346e-17
2.231923330e-17
3.661484017e-17
6.570086633e-17
1.355899088e-16
3.242263961e-16
9.325392236e-16
3.522778931e-15
2.157797623e-14
3.165706174e-13
0.000000000e+00
0.000000000e+00
0.000000000e+00
0.000000000e+00
0.000000000e+00
0.000000000e+00
0.000000000e+00
0.000000000e+00
9.856962577e-18
1.539899699e-17
2.555193080e-17
4.203010274e-17
7.636496580e-17
1.619937367e-16
3.958754812e-16
1.163042774e-15
4.452238881e-15
2.525992334e-14
2.511109058e-13
2.779003468e-12
0.000000000e+00
0.000000000e+00
0.000000000e+00
0.000000000e+00
0.000000000e+00
0.000000000e+00
0.000000000e+00
1.127315371e-17
1.740451544e-17
2.877812758e-17
4.727777063e-17
8.548719290e-17
1.801809222e-16
4.330150065e-16
1.231854248e-15
4.455578631e-15
2.254445347e-14
1.757005808e-13
1.592149369e-12
7.935961384e-12
0.000000000e+00
0.000000000e+00
0.000000000e+00
0.000000000e+00
0.000000000e+00
9.002804666e-18
1.280668520e-17
1.924616893e-17
3.063701204e-17
5.168508241e-17
9.199580607e-17
1.909801936e-16
4.469524343e-16
1.211271554e-15
4.098362543e-15
1.848383770e-14
1.203102992e-13
9.587211698e-13
5.040837007e-12
1.468236228e-11
0.000000000e+00
0.000000000e+00
0.000000000e+00
0.000000000e+00
1.063444230e-17
1.474004046e-17
2.169958446e-17
3.406863449e-17
5.746750076e-17
9.725955223e-17
1.964455419e-16
4.434445168e-16
1.140813683e-15
3.600652247e-15
1.459564509e-14
8.147159804e-14
5.781657477e-13
3.211817370e-12
1.023518193e-11
2.208478343e-11
0.000000000e+00
8.722211649e-18
1.021436133e-17
1.280448071e-17
1.714403626e-17
2.451700381e-17
3.754525777e-17
6.191962611e-17
1.025463817e-16
1.981891982e-16
4.284457863e-16
1.044256491e-15
3.075066817e-15
1.128702479e-14
5.493632545e-14
3.462107159e-13
1.994208395e-12
7.058810617e-12
1.637620299e-11
2.955559048e-11
1.221191889e-17
1.338463622e-17
1.588589697e-17
2.031388226e-17
2.793691360e-17
4.135009453e-17
6.610531342e-17
1.063757983e-16
1.969592030e-16
4.061073817e-16
9.370782785e-16
2.575809894e-15
8.611599572e-15
3.697149204e-14
2.059384469e-13
1.190926414e-12
4.712137850e-12
1.197245549e-11
2.286160291e-11
3.652518632e-11
1.867723451e-17
2.062652731e-17
2.483749278e-17
3.244647386e-17
4.592058865e-17
7.050557122e-17
1.094395859e-16
1.931215674e-16
3.796781403e-16
8.295520502e-16
2.129691687e-15
6.515142912e-15
2.489131560e-14
1.222194895e-13
6.827224697e-13
2.994614502e-12
8.490464544e-12
1.741071883e-11
2.927832715e-11
4.160111715e-11
2.863874837e-17
3.187865902e-17
3.896936220e-17
5.205082660e-17
7.588313761e-17
1.124321385e-16
1.871274041e-16
3.486106545e-16
7.346986197e-16
1.752793700e-15
4.915391047e-15
1.682275184e-14
7.280392274e-14
3.787114223e-13
1.790630431e-12
5.751851986e-12
1.290204972e-11
2.298584561e-11
3.523068384e-11
3.831617968e-11
4.394484181e-17
4.930073422e-17
6.118473042e-17
8.357962437e-17
1.169848409e-16
1.826370610e-16
3.226105269e-16
6.411374116e-16
1.436536855e-15
3.711834330e-15
1.145466033e-14
4.381213621e-14
2.063700632e-13
1.004094004e-12
3.666559560e-12
9.185398564e-12
1.759080133e-11
2.842539265e-11
3.995814705e-11
3.346225103e-14
6.737600212e-17
7.601373498e-17
9.561177279e-17
1.246755680e-16
1.816625501e-16
3.023072743e-16
5.636937712e-16
1.179139367e-15
2.815996041e-15
7.885150805e-15
2.679443781e-14
1.124160886e-13
5.330461712e-13
2.171279465e-12
6.193786466e-12
1.299501632e-11
2.230611377e-11
3.348386834e-11
4.105882818e-11
9.998091576e-15
1.049456583e-16
1.161010654e-16
1.379490796e-16
1.866495083e-16
2.917560140e-16
5.055508309e-16
9.821055899e-16
2.163869073e-15
5.517005122e-15
1.674982265e-14
6.216627891e-14
2.739390400e-13
1.188765626e-12
3.895554335e-12
9.154400174e-12
1.694743617e-11
2.687291764e-11
3.779888870e-11
2.814432166e-11
7.820759253e-15
1.421455006e-16
1.596347638e-16
2.027275662e-16
2.916332007e-16
4.678082455e-16
8.396095904e-16
1.701862669e-15
3.954294567e-15
1.077359060e-14
3.535373377e-14
1.402229182e-13
6.084035326e-13
2.254876328e-12
6.060813559e-12
1.234594401e-11
2.087939778e-11
3.114969084e-11
4.057014447e-11
1.904511084e-14
6.477115148e-15
2.035381371e-16
2.354902223e-16
3.087057513e-16
4.530821507e-16
7.460717491e-16
1.385281380e-15
2.930530291e-15
7.184780311e-15
2.089773120e-14
7.338749360e-14
2.997118565e-13
1.196792325e-12
3.712218171e-12
8.514444873e-12
1.561442253e-11
2.467905108e-11
3.497897579e-11
3.961744832e-11
9.920786646e-15
5.227838662e-15
3.054471472e-16
3.546256607e-16
4.687946895e-16
7.002689309e-16
1.182514261e-15
2.269941203e-15
5.011117204e-15
1.295768244e-14
4.006019128e-14
1.476907066e-13
5.920142626e-13
2.077672003e-12
5.475206540e-12
1.112142837e-11
1.885177331e-11
2.826536172e-11
3.811545583e-11
2.778600887e-11
8.100454579e-15
4.053968299e-15
4.542386489e-16
5.299554414e-16
7.078495312e-16
1.075751202e-15
1.861756307e-15
3.692839611e-15
8.502895005e-15
2.314107455e-14
7.535132441e-14
2.835711797e-13
1.064028422e-12
3.232806902e-12
7.442360320e-12
1.377859451e-11
2.198486063e-11
3.156946502e-11
4.009311559e-11
3.232007610e-14
7.027305095e-15
3.020211034e-15
6.705812144e-16
7.865720968e-16
1.062038380e-15
1.641799210e-15
2.910776030e-15
5.962560648e-15
1.430203761e-14
4.078702427e-14
1.378165000e-13
5.118556186e-13
1.737997651e-12
4.607624954e-12
9.523808877e-12
1.641255663e-11
2.496446561e-11
3.451630817e-11
3.993282684e-11
1.182720594e-14
6.096498262e-15
2.169217767e-15
9.835494655e-16
1.160000656e-15
1.583311368e-15
2.489130679e-15
4.518708118e-15
9.551256743e-15
2.381137574e-14
7.063175560e-14
2.427775299e-13
8.605628527e-13
2.605315727e-12
6.137370210e-12
1.164929014e-11
1.897335541e-11
2.775632900e-11
3.700407767e-11
3.539498612e-11
9.180027202e-15
5.217193719e-15
1.508480927e-15
1.433963976e-15
1.700401576e-15
2.345826301e-15
3.749138815e-15
6.964842310e-15
1.517029639e-14
3.915900204e-14
1.195290825e-13
4.083722433e-13
1.345628902e-12
3.635648437e-12
7.762632186e-12
1.376743689e-11
2.142814448e-11
3.033398399e-11
3.887610013e-11
2.065461131e-11
8.044273082e-15
4.396096937e-15
1.020098260e-15
2.078985674e-15
2.478360832e-15
3.454905969e-15
5.610874843e-15
1.065722582e-14
2.387031582e-14
6.344271540e-14
1.965589662e-13
6.519609914e-13
1.966894519e-12
4.790053930e-12
9.435035268e-12
1.584240109e-11
2.375605534e-11
3.267319148e-11
3.987728440e-11
3.588919916e-14
7.275129707e-15
3.653619831e-15
6.736898910e-16
2.998396119e-15
3.592824650e-15
5.059366218e-15
8.344268772e-15
1.618419130e-14
3.716409274e-14
1.009380994e-13
3.124969737e-13
9.858862038e-13
2.710824716e-12
6.030268619e-12
1.111771425e-11
1.785015351e-11
2.594420091e-11
3.474714185e-11
3.957862939e-11
1.379507337e-14
6.624480005e-15
3.003303012e-15
4.363405837e-16
4.303150498e-15
5.181881241e-15
7.368175874e-15
1.233107470e-14
2.437997188e-14
5.716031825e-14
1.571686925e-13
4.783547554e-13
1.414718723e-12
3.556409816e-12
7.323163645e-12
1.278384939e-11
1.977540768e-11
2.798475717e-11
3.652203378e-11
3.723612751e-11
1.041378745e-14
6.026069053e-15
2.448798211e-15
2.783901540e-16
6.146857670e-15
7.437211946e-15
1.067263068e-14
1.810484910e-14
3.640297328e-14
8.668193434e-14
2.387617634e-13
7.034980643e-13
1.935194499e-12
4.480508751e-12
8.642040524e-12
1.441462203e-11
2.160905646e-11
2.987285901e-11
3.795237376e-11
3.149855001e-11
9.047993289e-15
5.464803754e-15
1.985984579e-15
1.758393475e-16
8.741028368e-15
1.062316140e-14
1.537501476e-14
2.640046321e-14
5.382034394e-14
1.293260931e-13
3.528852447e-13
9.939673829e-13
2.538216771e-12
5.461261217e-12
9.966346866e-12
1.599741578e-11
2.334635551e-11
3.160502982e-11
3.897552407e-11
1.973261176e-11
8.264000311e-15
4.940523819e-15
1.605991673e-15
1.106088457e-16
1.237486905e-14
1.510123049e-14
2.202448316e-14
3.821153548e-14
7.868554086e-14
1.894332222e-13
5.064188278e-13
1.351671508e-12
3.211493251e-12
6.479663112e-12
1.128080489e-11
1.752419857e-11
2.498548669e-11
3.317801459e-11
3.950457459e-11
1.761273921e-13
7.707067949e-15
4.456168497e-15
1.297777892e-15
6.976790320e-17
1.744042006e-14
2.136070588e-14
3.135996347e-14
5.485163761e-14
1.135873837e-13
2.718977936e-13
7.050428014e-13
1.774611958e-12
3.941773767e-12
7.520066116e-12
1.257440967e-11
1.899029225e-11
2.652658094e-11
3.458792284e-11
3.941866801e-11
2.126687128e-14
7.254855775e-15
4.013916317e-15
1.049944464e-15
4.444718186e-17
2.446333016e-14
3.005520173e-14
4.435808043e-14
7.801036666e-14
1.616488398e-13
3.817702314e-13
9.525128187e-13
2.257809294e-12
4.716334163e-12
8.570015090e-12
1.383950160e-11
2.039347086e-11
2.797091474e-11
3.582946958e-11
3.854886191e-11
1.381341467e-14
6.858347459e-15
3.614245885e-15
8.517944790e-16
2.878757591e-17
3.413896075e-14
4.204406270e-14
6.228194149e-14
1.097904832e-13
2.264684015e-13
5.237885349e-13
1.250321376e-12
2.794459637e-12
5.523751341e-12
9.619878872e-12
1.507097696e-11
2.173316322e-11
2.932044998e-11
3.689542410e-11
3.665673505e-11
1.124222675e-14
6.496496412e-15
3.256044379e-15
6.938831553e-16
1.905155439e-17
4.737185134e-14
5.843513235e-14
8.672297768e-14
1.527127414e-13
3.119078990e-13
7.018889112e-13
1.597787943e-12
3.376967284e-12
6.354217227e-12
1.066235392e-11
1.626567992e-11
2.300997212e-11
3.057736202e-11
3.777600097e-11
3.340016378e-11
9.949648110e-15
6.160028293e-15
2.937029802e-15
5.681939528e-16
1.292473262e-17
6.531541870e-14
8.062356444e-14
1.196249872e-13
2.096905899e-13
4.218323043e-13
9.188245664e-13
1.992454363e-12
3.997704607e-12
7.199558511e-12
1.169203978e-11
1.742183989e-11
2.422525591e-11
3.174384274e-11
3.845818771e-11
2.827605417e-11
9.163989364e-15
5.844802009e-15
2.654204482e-15
4.681088685e-16
9.002494648e-18
8.940506472e-14
1.103179593e-13
1.632842386e-13
2.838938642e-13
5.597974200e-13
1.175975312e-12
2.430613980e-12
4.649482207e-12
8.053103844e-12
1.270505341e-11
1.853876792e-11
2.538082629e-11
3.282188143e-11
3.892517343e-11
2.052747335e-11
8.623309869e-15
5.548895229e-15
2.404227659e-15
3.882741753e-16
6.440384716e-18
1.213777008e-13
1.495454967e-13
2.203192632e-13
3.785757168e-13
7.287479883e-13
1.473359629e-12
2.907835910e-12
5.325805418e-12
8.909507308e-12
1.369866970e-11
1.961649031e-11
2.647876737e-11
3.381305369e-11
3.915544058e-11
9.096336072e-12
8.216029388e-15
5.271265602e-15
2.183672311e-15
3.244103034e-16
4.729982067e-18
1.632723500e-13
2.006432854e-13
2.935485760e-13
4.968574221e-13
9.307943107e-13
1.809813585e-12
3.419387485e-12
6.020972346e-12
9.764526247e-12
1.467108231e-11
2.065555108e-11
2.752124215e-11
3.471848499e-11
3.912180641e-11
7.856946177e-14
7.887715832e-15
5.011172200e-15
1.989212591e-15
2.731317024e-16
3.562618428e-18
2.174079333e-13
2.661686540e-13
3.858537656e-13
6.414994385e-13
1.167092420e-12
2.183251151e-12
3.960553868e-12
6.730066354e-12
1.061486097e-11
1.562117423e-11
2.165685589e-11
2.851041227e-11
3.553867519e-11
3.879015496e-11
2.610161839e-14
7.609356264e-15
4.767906159e-15
1.817738375e-15
2.317758132e-16
2.748370699e-18
2.862849494e-13
3.487884987e-13
5.000036291e-13
8.147046130e-13
1.437847799e-12
2.590952380e-12
4.526851064e-12
7.448915693e-12
1.145795586e-11
1.654832874e-11
2.262149047e-11
2.944835380e-11
3.627352322e-11
3.811779441e-11
1.753955173e-14
7.364486683e-15
4.540711337e-15
1.666409497e-15
1.982591972e-16
2.168537163e-18
3.724787571e-13
4.511369481e-13
6.384698158e-13
1.017983939e-12
1.742411303e-12
3.029832018e-12
5.114125186e-12
8.174025669e-12
1.229186775e-11
1.745235333e-11
2.355072039e-11
3.033698029e-11
3.692214631e-11
3.705116799e-11
1.407700612e-14
7.143297472e-15
4.328756354e-15
1.532672737e-15
1.709509095e-16
1.747485839e-18
4.784979588e-13
5.756536947e-13
8.032649220e-13
1.252099502e-12
2.079437095e-12
3.496639686e-12
5.718620826e-12
8.902479122e-12
1.311515061e-11
1.833330352e-11
2.444582659e-11
3.117800938e-11
3.748290009e-11
3.552303804e-11
1.221933282e-14
6.939718047e-15
4.131144105e-15
1.414254990e-15
1.485701619e-16
1.435835267e-18
6.066347753e-13
7.244296449e-13
9.958279492e-13
1.517089361e-12
2.447056367e-12
3.988140224e-12
6.336998699e-12
9.631859828e-12
1.392674624e-11
1.919144877e-11
2.530808520e-11
3.197295254e-11
3.795317754e-11
3.344833588e-11
1.106560440e-14
6.749864997e-15
3.946958701e-15
1.309172780e-15
1.301201791e-16
1.201154048e-18
7.588234482e-13
8.990849898e-13
1.216970777e-12
1.812343567e-12
2.843056410e-12
4.501194067e-12
6.966305106e-12
1.036018803e-11
1.472590659e-11
2.002721749e-11
2.613878396e-11
3.272309296e-11
3.832942888e-11
3.071864243e-11
1.027965221e-14
6.571173748e-15
3.775278730e-15
1.215694489e-15
1.148193623e-16
1.021662174e-18
9.365329894e-13
1.100693987e-12
1.466882344e-12
2.136722342e-12
3.265023833e-12
5.032858444e-12
7.603974427e-12
1.108582750e-11
1.551211095e-11
2.084109336e-11
2.693909285e-11
3.342946044e-11
3.860698862e-11
2.719463145e-11
9.707975176e-15
6.401882393e-15
3.615188127e-15
1.132316397e-15
1.020532925e-16
8.823547384e-19
1.140709712e-12
1.329760750e-12
1.745184090e-12
2.488686724e-12
3.710470910e-12
5.580404018e-12
8.247768898e-12
1.180747172e-11
1.628505208e-11
2.163364342e-11
2.771015142e-11
3.409279592e-11
3.877995275e-11
2.269696274e-11
9.270802948e-15
6.240739356e-15
3.465800923e-15
1.057733668e-15
9.133741881e-17
7.728102493e-19
1.371756422e-12
1.586245482e-12
2.051019356e-12
2.866417084e-12
4.176923874e-12
6.141334371e-12
8.895751497e-12
1.252403695e-11
1.704456350e-11
2.240545283e-11
2.845298944e-11
3.471360231e-11
3.884103659e-11
1.700116046e-11
8.922766141e-15
6.086812616e-15
3.326265797e-15
9.908092592e-16
8.228281475e-17
6.854690487e-19
1.629569316e-12
1.869626172e-12
2.383146581e-12
3.267928040e-12
4.661991714e-12
6.713396881e-12
9.546268413e-12
1.323466138e-11
1.779055708e-11
2.315712347e-11
2.916851759e-11
3.529207453e-11
3.878137471e-11
9.873287328e-12
8.636343737e-15
5.939405996e-15
3.195792487e-15
9.305753476e-16
7.458488542e-17
6.150113298e-19
1.913592679e-12
2.178976689e-12
2.740056424e-12
3.691156360e-12
5.163397329e-12
7.294567453e-12
1.019788041e-11
1.393865697e-11
1.852307366e-11
2.388922327e-11
2.985757615e-11
3.582812192e-11
3.859025747e-11
1.513547110e-12
8.393934974e-15
5.797955854e-15
3.073644222e-15
8.761992910e-16
6.800368495e-17
5.576806864e-19
2.222899296e-12
2.513062754e-12
3.120048796e-12
4.134032714e-12
5.679015419e-12
7.883030216e-12
1.084936323e-11
1.463547234e-11
1.924219505e-11
2.460233289e-11
3.052085797e-11
3.632133658e-11
3.825492110e-11
5.903524525e-14
8.183836482e-15
5.662000399e-15
2.959131405e-15
8.269580724e-16
6.234377305e-17
5.105738647e-19
2.556278028e-12
2.870423159e-12
3.521325517e-12
4.594527769e-12
6.206869279e-12
8.477183109e-12
1.149967634e-11
1.532468376e-11
1.994805346e-11
2.529699116e-11
3.115897893e-11
3.677100328e-11
3.776006950e-11
3.038575476e-14
7.998022887e-15
5.531150492e-15
2.851618541e-15
7.822258184e-16
5.744763613e-17
4.715211622e-19
2.912306572e-12
3.249456739e-12
3.942047821e-12
5.070698995e-12
6.745154555e-12
9.075602094e-12
1.214791987e-11
1.600595573e-11
2.064081129e-11
2.597369230e-11
3.177241152e-11
3.717604776e-11
3.708753621e-11
2.170424284e-14
7.830810238e-15
5.405051542e-15
2.750515808e-15
7.414609190e-16
5.318784157e-17
4.388824035e-19
3.289436068e-12
3.648480728e-12
4.380396786e-12
5.560701030e-12
7.292217489e-12
9.677020874e-12
1.279333223e-11
1.667902322e-11
2.132063267e-11
2.663290121e-11
3.236151118e-11
3.753506145e-11
3.621567273e-11
1.753632477e-14
7.678117969e-15
5.283405745e-15
2.655298453e-15
7.041993535e-16
4.946165096e-17
4.114144018e-19
3.686046311e-12
4.065790448e-12
4.834586370e-12
6.062808410e-12
7.846563551e-12
1.028032491e-11
1.343526211e-11
1.734371051e-11
2.198774225e-11
2.727505206e-11
3.292653861e-11
3.784619516e-11
3.511868422e-11
1.509927941e-14
7.536930004e-15
5.165935315e-15
2.565468903e-15
6.700340802e-16
4.618452461e-17
3.881235677e-19
4.100494434e-12
4.499697667e-12
5.302920785e-12
6.575411541e-12
8.406839975e-12
1.088454309e-11
1.407316381e-11
1.799987269e-11
2.264231911e-11
2.790049027e-11
3.346761084e-11
3.810724110e-11
3.376571435e-11
1.350564900e-14
7.404989105e-15
5.052375758e-15
2.480574499e-15
6.386057341e-16
4.328619484e-17
3.683095553e-19
4.531150439e-12
4.948562399e-12
5.783779094e-12
7.097037568e-12
8.971826682e-12
1.148880637e-11
1.470656764e-11
1.864742308e-11
2.328455471e-11
2.850955696e-11
3.398474858e-11
3.831549630e-11
3.211974451e-11
1.238481615e-14
7.280589052e-15
4.942507608e-15
2.400217462e-15
6.096082020e-16
4.070770716e-17
3.512187822e-19
4.976435719e-12
5.410809007e-12
6.275658168e-12
7.626319946e-12
9.540421612e-12
1.209235961e-11
1.533507472e-11
1.928628568e-11
2.391465360e-11
2.910253000e-11
3.447777883e-11
3.846775019e-11
3.013623864e-11
1.155466413e-14
7.162421928e-15
4.836122194e-15
2.324040811e-15
5.827850694e-16
3.840511503e-17
3.365062085e-19
5.434833990e-12
5.884948482e-12
6.777136795e-12
8.162026832e-12
1.011164441e-11
1.269453840e-11
1.595835721e-11
1.991643139e-11
2.453278489e-11
2.967963015e-11
3.494649636e-11
3.856023135e-11
2.776138714e-11
1.091530792e-14
7.049460856e-15
4.733029444e-15
2.251709855e-15
5.579038449e-16
3.633935712e-17
3.237737820e-19
5.904904580e-12
6.369576114e-12
7.286915924e-12
8.703014057e-12
1.068461809e-11
1.329475771e-11
1.657612739e-11
2.053784502e-11
2.513912226e-11
3.024103532e-11
3.539047924e-11
3.858853944e-11
2.493007403e-11
1.040746339e-14
6.940897385e-15
4.633035402e-15
2.182921345e-15
5.347597858e-16
3.447682498e-17
3.126837590e-19
6.385294969e-12
6.863381467e-12
7.803787436e-12
9.248265837e-12
1.125854567e-11
1.389250004e-11
1.718815710e-11
2.115052519e-11
2.573382193e-11
3.078686636e-11
3.580920142e-11
3.854759592e-11
2.156414387e-11
9.993715584e-15
6.836086897e-15
4.535976926e-15
2.117399480e-15
5.131727947e-16
3.278959774e-17
3.029760609e-19
6.874728921e-12
7.365151309e-12
8.326641888e-12
9.796839309e-12
1.183272840e-11
1.448732927e-11
1.779424029e-11
2.175448466e-11
2.631701916e-11
3.131717923e-11
3.620195200e-11
3.843150757e-11
1.757249306e-11
9.649366163e-15
6.734515807e-15
4.441690678e-15
2.054892299e-15
4.929864383e-16
3.125446053e-17
2.944366795e-19
7.372037037e-12
7.873758641e-12
8.854471827e-12
1.034789760e-11
1.240654210e-11
1.507883743e-11
1.839422208e-11
2.234976184e-11
2.688883111e-11
3.183200294e-11
3.656791286e-11
3.823347150e-11
1.285945991e-11
9.357435584e-15
6.635769745e-15
4.350028640e-15
1.995175685e-15
4.740629618e-16
2.985167827e-17
2.868891813e-19
7.876124203e-12
8.388169066e-12
9.386356134e-12
1.090067729e-11
1.297941480e-11
1.566669406e-11
1.898796040e-11
2.293634539e-11
2.744934918e-11
3.233127218e-11
3.690604613e-11
3.794566100e-11
7.367034345e-12
9.105906090e-15
6.539494389e-15
4.260854414e-15
1.938042984e-15
4.562804574e-16
2.856450277e-17
2.801846924e-19
8.385987232e-12
8.907437346e-12
9.921440997e-12
1.145448567e-11
1.355085462e-11
1.625060306e-11
1.957532791e-11
2.351429862e-11
2.799866981e-11
3.281488866e-11
3.721515729e-11
3.755907441e-11
1.387685470e-12
8.886036293e-15
6.445422667e-15
4.174042554e-15
1.883308449e-15
4.395321022e-16
2.737877039e-17
2.741998101e-19
8.900695328e-12
9.430688130e-12
1.045897137e-11
1.200870936e-11
1.412041654e-11
1.683028530e-11
2.015625458e-11
2.408362009e-11
2.853682649e-11
3.328270725e-11
3.749383757e-11
3.706326654e-11
8.083074660e-14
8.691320825e-15
6.353314927e-15
4.089468939e-15
1.830800893e-15
4.237225908e-16
2.628217624e-17
2.688275531e-19
9.419397495e-12
9.957119485e-12
1.099823494e-11
1.256278430e-11
1.468770409e-11
1.740552288e-11
2.073063558e-11
2.464436162e-11
2.906386371e-11
3.373446086e-11
3.774047032e-11
3.644625421e-11
3.983495998e-14
8.516850580e-15
6.262980185e-15
4.007028007e-15
1.780367449e-15
4.087681515e-16
2.526433068e-17
2.639787335e-19
9.941325580e-12
1.048601450e-11
1.153861970e-11
1.311620391e-11
1.525235343e-11
1.797611231e-11
2.129842691e-11
2.519651542e-11
2.957978042e-11
3.416985320e-11
3.795316244e-11
3.569415573e-11
2.761622342e-14
8.358832029e-15
6.174256334e-15
3.926613214e-15
1.731867695e-15
3.945939588e-16
2.431620921e-17
2.595763687e-19
1.046575688e-11
1.101669961e-11
1.207953355e-11
1.366852843e-11
1.581407323e-11
1.854188104e-11
2.185954823e-11
2.574011273e-11
3.008454542e-11
3.458855068e-11
3.812983192e-11
3.479086862e-11
2.178025995e-14
8.214307095e-15
6.087003304e-15
3.848131049e-15
1.685173451e-15
3.811332572e-16
2.343004187e-17
2.555528080e-19
1.099204498e-11
1.154858094e-11
1.262046016e-11
1.421933399e-11
1.637256210e-11
1.910267822e-11
2.241397793e-11
2.627515254e-11
3.057811239e-11
3.499006103e-11
3.826806261e-11
3.371766725e-11
1.837348590e-14
8.080942827e-15
6.001106206e-15
3.771488814e-15
1.640167322e-15
3.683269021e-16
2.259900894e-17
2.518518976e-19
1.151960024e-11
1.208110176e-11
1.316093980e-11
1.476826736e-11
1.692757862e-11
1.965836988e-11
2.296165392e-11
2.680163496e-11
3.106041719e-11
3.537388800e-11
3.836507621e-11
3.245272615e-11
1.614691620e-14
7.956866096e-15
5.916466663e-15
3.696607322e-15
1.596744701e-15
3.561221363e-16
2.181729010e-17
2.484239754e-19
1.204787863e-11
1.261376559e-11
1.370053574e-11
1.531499133e-11
1.747890059e-11
2.020882678e-11
2.350254175e-11
2.731955650e-11
3.153131490e-11
3.573939551e-11
3.841779224e-11
3.097050804e-11
1.458155555e-14
7.840567821e-15
5.833000163e-15
3.623405504e-15
1.554805539e-15
3.444713981e-16
2.107973593e-17
2.452251600e-19
1.257639203e-11
1.314612662e-11
1.423887259e-11
1.585922515e-11
1.802633882e-11
2.075395673e-11
2.403661613e-11
2.782888019e-11
3.199069555e-11
3.608586681e-11
3.842270071e-11
2.924094791e-11
1.342324600e-14
7.730822433e-15
5.750632278e-15
3.551812079e-15
1.514262622e-15
3.333322390e-16
2.038198289e-17
2.422193359e-19
1.310468546e-11
1.367776134e-11
1.477559892e-11
1.640067986e-11
1.856969752e-11
2.129365806e-11
2.456382484e-11
2.832957493e-11
3.243834833e-11
3.641252725e-11
3.837587166e-11
2.722878280e-11
1.253281720e-14
7.626620280e-15
5.669306631e-15
3.481760801e-15
1.475033458e-15
3.226663787e-16
1.972009759e-17
2.393715701e-19
1.363236168e-11
1.420829989e-11
1.531039087e-11
1.693912771e-11
1.910884225e-11
2.182785467e-11
2.508414528e-11
2.882159869e-11
3.287407490e-11
3.671840438e-11
3.827278544e-11
2.489230932e-11
1.182770780e-14
7.527133961e-15
5.588959092e-15
3.413188478e-15
1.437043800e-15
3.124396053e-16
1.909063011e-17
2.366541297e-19
1.415904119e-11
1.473740812e-11
1.584297154e-11
1.747436182e-11
1.964362815e-11
2.235646806e-11
2.559752404e-11
2.930487871e-11
3.329759281e-11
3.700249013e-11
3.810841737e-11
2.218282020e-11
1.125586876e-14
7.431676263e-15
5.509549991e-15
3.346034040e-15
1.400224451e-15
3.026210887e-16
1.849060489e-17
2.340430241e-19
1.468439517e-11
1.526477277e-11
1.637308595e-11
1.800617552e-11
2.017391482e-11
2.287942445e-11
2.610393248e-11
2.977932596e-11
3.370863634e-11
3.726360268e-11
3.787700886e-11
1.904413068e-11
1.078283624e-14
7.339661268e-15
5.431032366e-15
3.280246263e-15
1.364513087e-15
2.931831403e-16
1.791737049e-17
2.315159881e-19
1.520810823e-11
1.579011425e-11
1.690049393e-11
1.853440853e-11
2.069959642e-11
2.339665573e-11
2.660332085e-11
3.024485490e-11
3.410681102e-11
3.750043975e-11
3.757215496e-11
1.541483399e-11
1.038490611e-14
7.250616888e-15
5.353378852e-15
3.215771731e-15
1.329853008e-15
2.841005162e-16
1.736862034e-17
2.290540820e-19
1.572991755e-11
1.631318141e-11
1.742499060e-11
1.905888813e-11
2.122057590e-11
2.390811080e-11
2.709563563e-11
3.070133747e-11
3.449175630e-11
3.771150149e-11
3.718643636e-11
1.123800382e-11
1.004525679e-14
7.164125904e-15
5.276548140e-15
3.152564976e-15
1.296188184e-15
2.753508058e-16
1.684235444e-17
2.266401579e-19
1.624956321e-11
1.683374878e-11
1.794638981e-11
1.957947223e-11
2.173674067e-11
2.441372772e-11
2.758081846e-11
3.114863056e-11
3.486300895e-11
3.789514232e-11
3.671157337e-11
6.496835120e-12
9.751603802e-15
7.079847622e-15
5.200520139e-15
3.090578910e-15
1.263471958e-15
2.669132275e-16
1.633672256e-17
2.242598598e-19
1.676681262e-11
1.735160434e-11
1.846450730e-11
2.009604847e-11
2.224800984e-11
2.491344168e-11
2.805879688e-11
3.158657207e-11
3.522004341e-11
3.804955481e-11
3.613806318e-11
1.450880077e-12
9.494790253e-15
6.997486467e-15
5.125264905e-15
3.029774522e-15
1.231657424e-15
2.587688470e-16
1.585005272e-17
2.218997850e-19
1.728146215e-11
1.786654655e-11
1.897918515e-11
2.060847966e-11
2.275432138e-11
2.540719374e-11
2.852949517e-11
3.201498472e-11
3.556232083e-11
3.817265238e-11
3.545504967e-11
9.762347709e-14
9.267842489e-15
6.916798611e-15
5.050769125e-15
2.970110769e-15
1.200704924e-15
2.509012968e-16
1.538097980e-17
2.195484610e-19
1.779331617e-11
1.837842604e-11
1.949029368e-11
2.111666972e-11
2.325557734e-11
2.589492894e-11
2.899283347e-11
3.243364452e-11
3.588917267e-11
3.826214090e-11
3.465016401e-11
4.635193069e-14
9.065367786e-15
6.837568737e-15
4.977005390e-15
2.911551813e-15
1.170573179e-15
2.432944297e-16
1.492821932e-17
2.171980271e-19
1.830220312e-11
1.888706468e-11
1.999768781e-11
2.162051086e-11
2.375170685e-11
2.637657165e-11
2.944870539e-11
3.284233151e-11
3.619990538e-11
3.831546766e-11
3.370921057e-11
3.154032409e-14
8.883130256e-15
6.759619661e-15
4.903963338e-15
2.854064119e-15
1.141227859e-15
2.359342107e-16
1.449065637e-17
2.148388155e-19
1.880796410e-11
1.939233611e-11
2.050126562e-11
2.211991417e-11
2.424265144e-11
2.685206185e-11
2.989701197e-11
3.324075374e-11
3.649372949e-11
3.832979251e-11
3.261580859e-11
2.454481130e-14
8.717756522e-15
6.682788915e-15
4.831626888e-15
2.797616467e-15
1.112635718e-15
2.288085625e-16
1.406726780e-17
2.124654964e-19
1.931046531e-11
1.989408629e-11
2.100089636e-11
2.261479236e-11
2.472832789e-11
2.732132667e-11
3.033760608e-11
3.362859581e-11
3.676972640e-11
3.830189815e-11
3.135106911e-11
2.048351619e-14
8.566535955e-15
6.606950980e-15
4.759983420e-15
2.742175977e-15
1.084766146e-15
2.219048238e-16
1.365721958e-17
2.100729151e-19
1.980955443e-11
2.039221597e-11
2.149647836e-11
2.310506654e-11
2.520866900e-11
2.778429244e-11
3.077036466e-11
3.400554723e-11
3.702695098e-11
3.822824968e-11
2.989314692e-11
1.783735127e-14
8.427266223e-15
6.531984494e-15
4.689020924e-15
2.687717797e-15
1.057589588e-15
2.152127508e-16
1.325972224e-17
2.076564655e-19
2.030511921e-11
2.088659630e-11
2.198793674e-11
2.359065095e-11
2.568361769e-11
2.824086664e-11
3.119512173e-11
3.437119826e-11
3.726432698e-11
3.810483996e-11
2.821661956e-11
1.598069567e-14
8.298146049e-15
6.457799552e-15
4.618729909e-15
2.634213349e-15
1.031080814e-15
2.087225724e-16
1.287401358e-17
2.052123427e-19
2.079705615e-11
2.137713184e-11
2.247516658e-11
2.407147296e-11
2.615309243e-11
2.869094774e-11
3.161172184e-11
3.472514663e-11
3.748063105e-11
3.792720106e-11
2.629195063e-11
1.460881994e-14
8.177667984e-15
6.384310431e-15
4.549099984e-15
2.581639495e-15
1.005214736e-15
2.024250398e-16
1.249950956e-17
2.027363585e-19
2.128524241e-11
2.186373735e-11
2.295807524e-11
2.454746575e-11
2.661701102e-11
2.913445882e-11
3.201993119e-11
3.506692584e-11
3.767454440e-11
3.769035060e-11
2.408481608e-11
1.355555150e-14
8.064593805e-15
6.311445548e-15
4.480128091e-15
2.529970231e-15
9.799673780e-16
1.963121065e-16
1.213557667e-17
2.002262132e-19
2.176959168e-11
2.234628992e-11
2.343660212e-11
2.501855241e-11
2.707531443e-11
2.957126824e-11
3.241955871e-11
3.539601956e-11
3.784459772e-11
3.738864037e-11
2.155551617e-11
1.272260275e-14
7.957873128e-15
6.239138960e-15
4.411804546e-15
2.479185664e-15
9.553178027e-16
1.903753104e-16
1.178173025e-17
1.976794511e-19
2.225001008e-11
2.282474001e-11
2.391066079e-11
2.548465664e-11
2.752792019e-11
3.000125781e-11
3.281036280e-11
3.571184652e-11
3.798915432e-11
3.701576729e-11
1.865922389e-11
1.204809711e-14
7.856634172e-15
6.167346855e-15
4.344122806e-15
2.429264362e-15
9.312459101e-16
1.846079082e-16
1.143747152e-17
1.950949989e-19
2.272640196e-11
2.329897762e-11
2.438017497e-11
2.594570680e-11
2.797472632e-11
3.042430337e-11
3.319205803e-11
3.601379602e-11
3.810644356e-11
3.656459413e-11
1.534756454e-11
1.149116135e-14
7.760124248e-15
6.096022929e-15
4.277078768e-15
2.380185684e-15
9.077322855e-16
1.790030808e-16
1.110237624e-17
1.924721558e-19
2.319869647e-11
2.376893883e-11
2.484506237e-11
2.640162655e-11
2.841564832e-11
3.084024691e-11
3.356438365e-11
3.630115588e-11
3.819444727e-11
3.602707264e-11
1.157578843e-11
1.102371538e-14
7.667709373e-15
6.025128947e-15
4.210667103e-15
2.331931993e-15
8.847596217e-16
1.735553234e-16
1.077609462e-17
1.898121297e-19
2.366681330e-11
2.423453826e-11
2.530527172e-11
2.685234722e-11
2.885057840e-11
3.124891839e-11
3.392699686e-11
3.657316759e-11
3.825095579e-11
3.539406098e-11
7.325083593e-12
1.062581661e-14
7.578849931e-15
5.954631890e-15
4.144885379e-15
2.284485051e-15
8.623103379e-16
1.682581495e-16
1.045828342e-17
1.871150093e-19
2.413066007e-11
2.469570958e-11
2.576069705e-11
2.729777063e-11
2.927943591e-11
3.165015221e-11
3.427953677e-11
3.682899557e-11
3.827354562e-11
3.465522089e-11
2.701132687e-12
1.028293514e-14
7.493076998e-15
5.884507073e-15
4.079726069e-15
2.237827084e-15
8.403700857e-16
1.631067626e-16
1.014863829e-17
1.843817585e-19
2.459017254e-11
2.515236806e-11
2.621128899e-11
2.773781819e-11
2.970207868e-11
3.204374670e-11
3.462161504e-11
3.706772811e-11
3.825947814e-11
3.379878259e-11
1.613855319e-13
9.984218086e-15
7.409989165e-15
5.814732833e-15
4.015191719e-15
2.191945016e-15
8.189233233e-16
1.580964431e-16
9.846907925e-18
1.816143478e-19
2.504528592e-11