/*--------------------------------*- C++ -*----------------------------------*\
| =========                 |                                                 |
| \\      /  F ield         | OpenFOAM: The Open Source CFD Toolbox           |
|  \\    /   O peration     | Version:  5.x                                   |
|   \\  /    A nd           | Web:      www.OpenFOAM.org                      |
|    \\/     M anipulation  |                                                 |
\*---------------------------------------------------------------------------*/
FoamFile
{
    version     2.0;
    format      ascii;
    class       volScalarField;
    location    "3.5";
    object       HCO;
}
// * * * * * * * * * * * * * * * * * * * * * * * * * * * * * * * * * * * * * //

dimensions      [0 0 0 0 0 0 0];

internalField   nonuniform List<scalar>
51080
(
0.000000000e+00
0.000000000e+00
0.000000000e+00
0.000000000e+00
0.000000000e+00
0.000000000e+00
0.000000000e+00
0.000000000e+00
0.000000000e+00
0.000000000e+00
1.869645577e-17
3.399789729e-17
6.077807864e-17
1.205020987e-16
2.803140653e-16
7.693534588e-16
2.598912542e-15
1.200632905e-14
9.845331979e-14
2.404004731e-12
0.000000000e+00
0.000000000e+00
0.000000000e+00
0.000000000e+00
0.000000000e+00
0.000000000e+00
0.000000000e+00
0.000000000e+00
1.306332887e-17
2.204998941e-17
3.999678551e-17
7.173978146e-17
1.442874626e-16
3.462719849e-16
9.734123416e-16
3.367031871e-15
1.580749508e-14
1.189718597e-13
1.825992782e-12
3.542983924e-11
0.000000000e+00
0.000000000e+00
0.000000000e+00
0.000000000e+00
0.000000000e+00
0.000000000e+00
0.000000000e+00
1.532025782e-17
2.552654399e-17
4.613115591e-17
8.262231680e-17
1.651779947e-16
3.931676460e-16
1.083307716e-15
3.609557483e-15
1.587306453e-14
1.044624964e-13
1.191545554e-12
1.766541462e-11
1.381604494e-10
0.000000000e+00
0.000000000e+00
0.000000000e+00
0.000000000e+00
0.000000000e+00
1.178591645e-17
1.782518118e-17
2.878977456e-17
4.976152623e-17
9.195837761e-17
1.804316995e-16
4.217856586e-16
1.126686040e-15
3.549555017e-15
1.444869280e-14
8.300640559e-14
7.586294174e-13
9.434223662e-12
7.655917831e-11
3.206791249e-10
0.000000000e+00
0.000000000e+00
0.000000000e+00
0.000000000e+00
1.434420166e-17
2.105971956e-17
3.321251226e-17
5.648481427e-17
1.043460051e-16
1.929433193e-16
4.367639396e-16
1.118914894e-15
3.319991043e-15
1.246789302e-14
6.312756485e-14
4.775134567e-13
5.074577824e-12
4.302794028e-11
1.958622362e-10
5.838821440e-10
0.000000000e+00
1.137453799e-17
1.369087559e-17
1.785949678e-17
2.518787178e-17
3.839707375e-17
6.341258751e-17
1.140570467e-16
2.055778810e-16
4.420290546e-16
1.077259520e-15
3.003908275e-15
1.041037183e-14
4.686995422e-14
2.996584143e-13
2.719529650e-12
2.358976679e-11
1.195357387e-10
3.776270087e-10
9.364197337e-10
1.689937992e-17
1.882665499e-17
2.303920797e-17
3.078819805e-17
4.482441618e-17
7.110846643e-17
1.232843629e-16
2.148388006e-16
4.394579145e-16
1.014164190e-15
2.655714827e-15
8.499294863e-15
3.427431739e-14
1.880006537e-13
1.452633907e-12
1.240723607e-11
7.064417734e-11
2.439915172e-10
6.216001309e-10
1.404571648e-09
2.789716566e-17
3.136335325e-17
3.904655333e-17
5.349961394e-17
8.049303831e-17
1.330618822e-16
2.222924055e-16
4.300140858e-16
9.394660998e-16
2.310859828e-15
6.835188500e-15
2.483221329e-14
1.182387882e-13
7.773439832e-13
6.247420870e-12
3.955517448e-11
1.533746433e-10
4.150275564e-10
9.324381318e-10
2.048820002e-09
4.620107227e-17
5.242080775e-17
6.640319402e-17
9.330245163e-17
1.451032582e-16
2.295641177e-16
4.149244061e-16
8.520795229e-16
2.011357690e-15
5.467645877e-15
1.794241396e-14
7.483741381e-14
4.196481406e-13
3.042579782e-12
2.068500360e-11
9.181031545e-11
2.717268539e-10
6.311733293e-10
1.324555733e-09
2.979386804e-09
7.650428294e-17
8.757319862e-17
1.128252205e-16
1.625239807e-16
2.405590401e-16
4.036534046e-16
7.796738825e-16
1.720749742e-15
4.352270272e-15
1.298349267e-14
4.785972942e-14
2.302184933e-13
1.460090910e-12
1.007073510e-11
5.133370503e-11
1.709613376e-10
4.231798232e-10
8.938094553e-10
1.828410618e-09
4.376875719e-09
1.263442197e-16
1.455021349e-16
1.902210615e-16
2.591676421e-16
4.013393449e-16
7.236512826e-16
1.484543050e-15
3.470181680e-15
9.448694729e-15
3.104175708e-14
1.291777721e-13
7.049311367e-13
4.623290800e-12
2.640168065e-11
1.013777871e-10
2.753093732e-10
6.054903677e-10
1.208935512e-09
2.497530460e-09
1.004179712e-08
2.120994248e-16
2.385974590e-16
2.916149027e-16
4.142776011e-16
6.948075544e-16
1.310145680e-15
2.813394460e-15
6.979924350e-15
2.054008531e-14
7.459031086e-14
3.485691169e-13
2.057898951e-12
1.243289340e-11
5.557603115e-11
1.705651132e-10
4.021685542e-10
8.178575147e-10
1.588981269e-09
3.354130735e-09
1.764331110e-08
3.020034275e-16
3.456004411e-16
4.560270403e-16
6.946534822e-16
1.198461467e-15
2.350031309e-15
5.296576349e-15
1.398708599e-14
4.463372617e-14
1.790719042e-13
9.191945479e-13
5.442013684e-12
2.772594734e-11
9.869562343e-11
2.569610741e-10
5.490912764e-10
1.061448137e-09
2.054716809e-09
5.175447134e-09
2.591500284e-08
4.581999896e-16
5.425212750e-16
7.419907144e-16
1.155333646e-15
2.051948141e-15
4.181260378e-15
9.904511148e-15
2.790414882e-14
9.666963987e-14
4.247496552e-13
2.296666812e-12
1.255004765e-11
5.230661260e-11
1.549932114e-10
3.582073213e-10
7.143420238e-10
1.339733377e-09
2.632898882e-09
9.777309348e-09
3.351813903e-08
7.330260573e-16
8.709801388e-16
1.201822066e-15
1.908005147e-15
3.486202751e-15
7.382116475e-15
1.839751549e-14
5.535907513e-14
2.076055771e-13
9.788895872e-13
5.267110322e-12
2.503197689e-11
8.651858449e-11
2.228419694e-10
4.721127572e-10
8.970355460e-10
1.658746558e-09
3.304860708e-09
1.547878765e-08
3.945528223e-08
1.159004941e-15
1.384391621e-15
1.932039155e-15
3.127189941e-15
5.877264708e-15
1.293595067e-14
3.393798335e-14
1.089842658e-13
4.385465265e-13
2.149113180e-12
1.085410774e-11
4.386475564e-11
1.296745512e-10
3.004115098e-10
5.968736202e-10
1.097147333e-09
2.026992359e-09
4.236008283e-09
2.164083658e-08
4.321365143e-08
1.815543826e-15
2.181525658e-15
3.081704135e-15
5.086367521e-15
9.833637640e-15
2.250207836e-14
6.213237463e-14
2.121565034e-13
9.014622310e-13
4.410429682e-12
2.001680315e-11
6.920473917e-11
1.806044483e-10
3.859853017e-10
7.311205007e-10
1.315460840e-09
2.453558002e-09
7.287749989e-09
2.763291890e-08
4.472100395e-08
2.821361322e-15
3.411125881e-15
4.878900198e-15
8.212458616e-15
1.633420589e-14
3.885415534e-14
1.127356628e-13
4.062997586e-13
1.781913060e-12
8.352509079e-12
3.335721319e-11
1.006155206e-10
2.380175081e-10
4.780827877e-10
8.738947915e-10
1.553479706e-09
2.937475944e-09
1.101413500e-08
3.296639255e-08
4.421841476e-08
4.353531046e-15
5.296602340e-15
7.670973588e-15
1.316886924e-14
2.694304934e-14
6.657184188e-14
2.022835641e-13
7.605374303e-13
3.349360517e-12
1.454566258e-11
5.103469865e-11
1.373570538e-10
3.006888641e-10
5.754873605e-10
1.024592623e-09
1.813244519e-09
3.401510316e-09
1.514686121e-08
3.733958536e-08
4.212134577e-08
6.675554394e-15
8.172591519e-15
1.198485869e-14
2.098126598e-14
4.413837518e-14
1.130940157e-13
3.578351410e-13
1.381711167e-12
5.936810420e-12
2.340188732e-11
7.285715859e-11
1.785938193e-10
3.675395864e-10
6.772332238e-10
1.182905690e-09
2.096929609e-09
4.073891977e-09
1.941059252e-08
4.062478123e-08
3.890369132e-08
1.017857924e-14
1.253889540e-14
1.861687094e-14
3.322604955e-14
7.180515516e-14
1.902479170e-13
6.216769406e-13
2.420185975e-12
9.887945802e-12
3.511008949e-11
9.842394701e-11
2.235126110e-10
4.376583859e-10
7.825732519e-10
1.348756395e-09
2.405812965e-09
6.097065174e-09
2.356916157e-08
4.282824449e-08
3.501792228e-08
1.544176327e-14
1.913963221e-14
2.876488251e-14
5.230807004e-14
1.159504331e-13
3.163223319e-13
1.056212955e-12
4.064317351e-12
1.549285093e-11
4.965379873e-11
1.272447379e-10
2.713803029e-10
5.102990557e-10
8.909443201e-10
1.522234606e-09
2.737564473e-09
8.430138333e-09
2.744663035e-08
4.404435317e-08
3.085065625e-08
2.331991611e-14
2.907837619e-14
4.422082705e-14
8.186135467e-14
1.857001128e-13
5.186248805e-13
1.747750056e-12
6.522003779e-12
2.294278429e-11
6.687028559e-11
1.588169940e-10
3.215635690e-10
5.848620951e-10
1.001934215e-09
1.703522438e-09
3.078034022e-09
1.096951285e-08
3.092958830e-08
4.441583082e-08
2.670592057e-08
3.506980985e-14
4.398391121e-14
6.764589720e-14
1.273115696e-13
2.946124548e-13
8.362207785e-13
2.806148197e-12
9.993166900e-12
3.231825504e-11
8.651374756e-11
1.926688398e-10
3.735329260e-10
6.608762253e-10
1.115252317e-09
1.892805098e-09
3.369577245e-09
1.361445799e-08
3.395933943e-08
4.410327716e-08
2.280443625e-08
5.252963919e-14
6.624478410e-14
1.029556378e-13
1.966349420e-13
4.622825639e-13
1.322384114e-12
4.359202585e-12
1.464318931e-11
4.360367961e-11
1.083035480e-10
2.283794153e-10
4.268542625e-10
7.379774376e-10
1.230702504e-09
2.090136898e-09
3.475534103e-09
1.627677831e-08
3.651960829e-08
4.326481131e-08
1.928920360e-08
7.837017538e-14
9.933520708e-14
1.558433632e-13
3.013345320e-13
7.160997231e-13
2.045723328e-12
6.541894744e-12
2.058617892e-11
5.671396952e-11
1.319570228e-10
2.655857396e-10
4.811782653e-10
8.158916357e-10
1.348162378e-09
2.295237993e-09
4.649731121e-09
1.888554198e-08
3.862401480e-08
4.204396603e-08
1.623321452e-08
1.164382409e-13
1.482550206e-13
2.344640445e-13
4.576133534e-13
1.092911227e-12
3.088737728e-12
9.482976232e-12
2.788085461e-11
7.152157491e-11
1.572077101e-10
3.039820843e-10
5.362301063e-10
8.944169799e-10
1.467562617e-09
2.507143312e-09
5.955864723e-09
2.138797991e-08
4.030529441e-08
4.056361196e-08
1.365049556e-08
1.722139327e-13
2.201050305e-13
3.502852918e-13
6.876554917e-13
1.640301454e-12
4.543915090e-12
1.329260376e-11
3.653635280e-11
8.787801023e-11
1.838152439e-10
3.433154141e-10
5.917957369e-10
9.734118739e-10
1.588871394e-09
2.723556351e-09
7.353546080e-09
2.374796347e-08
4.160673880e-08
3.892435335e-08
1.151219316e-08
2.533956658e-13
3.248040858e-13
5.190754343e-13
1.020867955e-12
2.416421998e-12
6.507451698e-12
1.805414815e-11
4.652310185e-11
1.056293501e-10
2.115682049e-10
3.833803865e-10
6.477132508e-10
1.052781442e-09
1.712078328e-09
2.939552692e-09
8.811688285e-09
2.594352655e-08
4.257584503e-08
3.720544094e-08
9.765156340e-09
3.706168931e-13
4.759333545e-13
7.619463339e-13
1.494955307e-12
3.488554386e-12
9.071904650e-12
2.382118082e-11
5.778468446e-11
1.246260681e-10
2.402847687e-10
4.240112863e-10
7.038632997e-10
1.132470599e-09
1.837175642e-09
3.144653064e-09
1.030261035e-08
2.796388223e-08
4.326026609e-08
3.546710491e-08
8.347786566e-09
5.382639935e-13
6.916494429e-13
1.106355706e-12
2.156049763e-12
4.930093282e-12
1.231941612e-11
3.061886137e-11
7.024820129e-11
1.447285692e-10
2.698111664e-10
4.650782019e-10
7.601609775e-10
1.212455574e-09
1.964144807e-09
3.315123021e-09
1.180276477e-08
2.980662913e-08
4.370513872e-08
3.375355074e-08
7.200548946e-09
7.753381404e-13
9.955762406e-13
1.586903549e-12
3.058025354e-12
6.816304560e-12
1.631678406e-11
3.844815359e-11
8.383251529e-11
1.658102890e-10
3.000183287e-10
5.064797785e-10
8.165503688e-10
1.292735367e-09
2.092930062e-09
3.389602589e-09
1.329286152e-08
3.147535326e-08
4.395143641e-08
3.209575660e-08
6.270957690e-09
1.106285263e-12
1.417638131e-12
2.245316108e-12
4.260764374e-12
9.219683313e-12
2.111305309e-11
4.729102201e-11
9.845414753e-11
1.877582091e-10
3.307997757e-10
5.481389735e-10
8.729980305e-10
1.373329470e-09
2.223415787e-09
3.575565560e-09
1.475776291e-08
3.297773975e-08
4.403549217e-08
3.051430590e-08
5.515210513e-09
1.561671608e-12
1.994257209e-12
3.129869902e-12
5.827426000e-12
1.220562521e-11
2.673928467e-11
5.711578868e-11
1.140310325e-10
2.104734275e-10
3.620682157e-10
5.899993330e-10
9.294893034e-10
1.454270059e-09
2.355388868e-09
4.261700001e-09
1.618599868e-08
3.432393710e-08
4.398883051e-08
2.902176919e-08
4.897883670e-09
2.178211133e-12
2.768070411e-12
4.293953336e-12
7.821142199e-12
1.582923598e-11
3.321007948e-11
6.788191238e-11
1.304851239e-10
2.338697558e-10
3.937523883e-10
6.320197818e-10
9.860246629e-10
1.535602427e-09
2.488486622e-09
4.986074425e-09
1.756929212e-08
3.552550238e-08
4.383822187e-08
2.762476353e-08
4.390932867e-09
2.998384162e-12
3.786981887e-12
5.793870599e-12
1.030165158e-11
2.013349504e-11
4.052613899e-11
7.954339838e-11
1.477439971e-10
2.578728744e-10
4.257961496e-10
6.741745209e-10
1.042616009e-09
1.617377759e-09
2.622118545e-09
5.739065820e-09
1.890198178e-08
3.659445700e-08
4.360611584e-08
2.632537916e-08
3.972282006e-09
4.069366123e-12
5.102498440e-12
7.686175265e-12
1.332236143e-11
2.514881563e-11
4.867687273e-11
9.205183703e-11
1.657411295e-10
2.824194121e-10
4.581543269e-10
7.164476429e-10
1.099284314e-09
1.699653710e-09
2.755352389e-09
6.513728365e-09
2.018059280e-08
3.754281302e-08
4.331120435e-08
2.512234622e-08
3.624294729e-09
5.441361076e-12
6.767536428e-12
1.002492360e-11
1.692829844e-11
3.089358007e-11
5.764347653e-11
1.053585280e-10
1.844161941e-10
3.074553747e-10
4.907919905e-10
7.588319574e-10
1.156058404e-09
1.782485987e-09
2.886719159e-09
7.304009798e-09
2.140331542e-08
3.838216088e-08
4.296884567e-08
2.401249046e-08
3.333341513e-09
7.165460061e-12
8.834007983e-12
1.285924597e-11
2.115491865e-11
3.737554058e-11
6.740087545e-11
1.194155470e-10
2.037151857e-10
3.329351950e-10
5.236833251e-10
8.013289583e-10
1.212973048e-09
1.865931955e-09
3.013889277e-09
8.104673151e-09
2.256965210e-08
3.912345246e-08
4.259151048e-08
2.299121565e-08
3.088787198e-09
9.291362662e-12
1.135050617e-11
1.623148219e-11
2.602788875e-11
4.459337029e-11
7.792030911e-11
1.341772263e-10
2.235895275e-10
3.588201973e-10
5.568083789e-10
8.439443848e-10
1.270067759e-09
1.950043730e-09
3.133089499e-09
8.911201462e-09
2.368008481e-08
3.977673426e-08
4.218928166e-08
2.205310799e-08
2.882134790e-09
1.186530425e-11
1.436036056e-11
2.017607408e-11
3.156358103e-11
5.253850028e-11
8.917058622e-11
1.496002092e-10
2.439967164e-10
3.850786130e-10
5.901538826e-10
8.866899993e-10
1.327384356e-09
2.034865493e-09
3.237985709e-09
9.719780936e-09
2.473579732e-08
4.035123456e-08
4.177012321e-08
2.119225377e-08
2.706690632e-09
1.492824141e-11
1.790030132e-11
2.471920214e-11
3.776991708e-11
6.119674500e-11
1.011193710e-10
1.656439059e-10
2.648985761e-10
4.116841735e-10
6.237112261e-10
9.295811787e-10
1.384968742e-09
2.120430542e-09
3.317371788e-09
1.052723292e-08
2.573852647e-08
4.085542672e-08
4.134040759e-08
2.040228882e-08
2.556820495e-09
1.851476563e-11
2.199974704e-11
2.987885962e-11
4.464761148e-11
7.054986661e-11
1.137342928e-10
1.822710359e-10
2.862617365e-10
4.386142635e-10
6.574762283e-10
9.726355809e-10
1.442867535e-09
2.206754924e-09
3.350300864e-09
1.133090138e-08
2.669030597e-08
4.129688081e-08
4.090518691e-08
1.967723445e-08
2.428166738e-09
2.265243452e-11
2.668060187e-11
3.566568020e-11
5.219141323e-11
8.057663409e-11
1.269834995e-10
1.994468516e-10
3.080569435e-10
4.658517091e-10
6.914472881e-10
1.015874428e-09
1.501128927e-09
2.293831386e-09
3.307364777e-09
1.212865623e-08
2.759336911e-08
4.168231133e-08
4.046835925e-08
1.901163282e-08
2.317452103e-09
2.736170859e-11
3.195764673e-11
4.208357078e-11
6.039133322e-11
9.125408946e-11
1.408359554e-10
2.171397365e-10
3.302585067e-10
4.933822667e-10
7.256265928e-10
1.059320167e-09
1.559801565e-09
2.381624051e-09
3.621621718e-09
1.291872655e-08
2.845007676e-08
4.201773510e-08
4.003287529e-08
1.840001886e-08
2.221779878e-09
3.265633172e-11
3.783905961e-11
4.913088975e-11
6.923368286e-11
1.025580670e-10
1.552622365e-10
2.353210316e-10
3.528442276e-10
5.211949086e-10
7.600187297e-10
1.102997659e-09
1.618934207e-09
2.470051081e-09
4.032942547e-09
1.369973163e-08
2.926282238e-08
4.230850931e-08
3.960095063e-08
1.783727582e-08
2.138787177e-09
3.854379649e-11
4.432735458e-11
5.680134217e-11
7.870221250e-11
1.144642110e-10
1.702343482e-10
2.539643980e-10
3.757946914e-10
5.492812113e-10
7.946295371e-10
1.146932378e-09
1.678575602e-09
2.558980845e-09
4.459889898e-09
1.447060638e-08
3.003396040e-08
4.255933027e-08
3.917419310e-08
1.731868712e-08
2.066536625e-09
4.502628411e-11
5.142011856e-11
6.508510508e-11
8.877871930e-11
1.269481048e-10
1.857257524e-10
2.730461623e-10
3.990928998e-10
5.776345858e-10
8.294673248e-10
1.191150697e-09
1.738774397e-09
2.648201337e-09
4.900243946e-09
1.523049512e-08
3.076583637e-08
4.277444772e-08
3.875385991e-08
1.684002167e-08
2.003460080e-09
5.210139788e-11
5.911098867e-11
7.396928811e-11
9.944387502e-11
1.399859224e-10
2.017116923e-10
2.925448131e-10
4.227249128e-10
6.062519136e-10
8.645420933e-10
1.235680871e-09
1.799575551e-09
2.737400186e-09
5.352602643e-09
1.597879100e-08
3.146065492e-08
4.295741863e-08
3.834056792e-08
1.639724960e-08
1.948170546e-09
5.976295628e-11
6.739043008e-11
8.343922289e-11
1.106775701e-10
1.535545141e-10
2.181693425e-10
3.124412399e-10
4.466782268e-10
6.351303878e-10
8.998638291e-10
1.280551079e-09
1.861025671e-09
2.826117738e-09
5.815772295e-09
1.671504901e-08
3.212055211e-08
4.311160586e-08
3.793484309e-08
1.598680239e-08
1.899723869e-09
6.800171500e-11
7.624648422e-11
9.347852746e-11
1.224597238e-10
1.676316014e-10
2.350771801e-10
3.327180954e-10
4.709428232e-10
6.642691497e-10
9.354448008e-10
1.325790981e-09
1.923166530e-09
2.913698431e-09
6.288658665e-09
1.743896611e-08
3.274761952e-08
4.323998393e-08
3.753706073e-08
1.560515425e-08
1.856803857e-09
7.680621931e-11
8.566531823e-11
1.040702471e-10
1.347700646e-10
1.821958327e-10
2.524155347e-10
3.533598048e-10
4.955096859e-10
6.936693601e-10
9.712982803e-10
1.371428191e-09
1.986037354e-09
2.999188955e-09
6.770250560e-09
1.815033508e-08
3.334371010e-08
4.334499810e-08
3.714734822e-08
1.524981088e-08
1.818947315e-09
8.616326961e-11
9.563194238e-11
1.151965151e-10
1.475890629e-10
1.972271070e-10
2.701662338e-10
3.743527488e-10
5.203719291e-10
7.233325145e-10
1.007437626e-09
1.417494432e-09
2.049671754e-09
3.081212344e-09
7.259613328e-09
1.884904817e-08
3.391061481e-08
4.342890175e-08
3.676562621e-08
1.491820396e-08
1.785461962e-09
9.605842610e-11
1.061304300e-10
1.268396359e-10
1.608972420e-10
2.127065529e-10
2.883125740e-10
3.956845101e-10
5.455238774e-10
7.532617829e-10
1.043877531e-09
1.464018956e-09
2.114098886e-09
3.157734789e-09
7.755890853e-09
1.953504660e-08
3.444997103e-08
4.349362860e-08
3.639175607e-08
1.460788144e-08
1.755715859e-09
1.064765053e-10
1.171444416e-10
1.389817973e-10
1.746763593e-10
2.286161137e-10
3.068390650e-10
4.173445539e-10
5.709610996e-10
7.834612909e-10
1.080633282e-09
1.511032037e-09
2.179341161e-09
3.225695797e-09
8.258285125e-09
2.020840203e-08
3.496334825e-08
4.354093777e-08
3.602546808e-08
1.431667620e-08
1.729209651e-09
1.174016549e-10
1.286575331e-10
1.516054697e-10
1.889084456e-10
2.449392173e-10
3.257321038e-10
4.393232002e-10
5.966802833e-10
8.139359358e-10
1.117720278e-09
1.558563473e-09
2.245411856e-09
3.280366288e-09
8.766065746e-09
2.086915436e-08
3.545217063e-08
4.357233444e-08
3.566651853e-08
1.404269683e-08
1.705514211e-09
1.288181983e-10
1.406532196e-10
1.646937836e-10
2.035767711e-10
2.616604491e-10
3.449786319e-10
4.616124919e-10
6.226800203e-10
8.446916172e-10
1.155155756e-09
1.606645325e-09
2.312312341e-09
3.314217908e-09
9.278551309e-09
2.151743803e-08
3.591779034e-08
4.358917219e-08
3.531457010e-08
1.378423154e-08
1.684262214e-09
1.407102506e-10
1.531153632e-10
1.782304078e-10
2.186653082e-10
2.787650482e-10
3.645674158e-10
4.842052637e-10
6.489578860e-10
8.757343716e-10
1.192956023e-09
1.655306538e-09
2.380030068e-09
3.315290223e-09
9.795104764e-09
2.215335947e-08
3.636143840e-08
4.359269123e-08
3.496929776e-08
1.353974481e-08
1.665130537e-09
1.530623185e-10
1.660283132e-10
1.921993182e-10
2.341588333e-10
2.962398938e-10
3.844882859e-10
5.070950977e-10
6.755148542e-10
9.070723331e-10
1.231138932e-09
1.704578718e-09
2.448534577e-09
3.275729740e-09
1.031514935e-08
2.277710004e-08
3.678428016e-08
4.358391123e-08
3.463035145e-08
1.330787409e-08
1.647843448e-09
1.658590760e-10
1.793767129e-10
2.065857424e-10
2.500433489e-10
3.140726374e-10
4.047314409e-10
5.302777223e-10
7.023505415e-10
9.387127744e-10
1.269723427e-09
1.754490916e-09
2.517768080e-09
3.485520853e-09
1.083812509e-08
2.338878954e-08
3.718734057e-08
4.356377935e-08
3.429736463e-08
1.308736646e-08
1.632152124e-09
1.790857340e-10
1.931457361e-10
2.213749816e-10
2.663054100e-10
3.322519387e-10
4.252888874e-10
5.537482660e-10
7.294672908e-10
9.706647850e-10
1.308726846e-09
1.805073210e-09
2.587645830e-09
3.779502027e-09
1.136354464e-08
2.398863781e-08
3.757161530e-08
4.353311901e-08
3.397000196e-08
1.287713048e-08
1.617844035e-09
1.927283256e-10
2.073215698e-10
2.365539809e-10
2.829325393e-10
3.507671456e-10
4.461531739e-10
5.775041460e-10
7.568662450e-10
1.002937341e-09
1.348168161e-09
1.856352684e-09
2.658038619e-09
4.085689412e-09
1.189092131e-08
2.457681417e-08
3.793801998e-08
4.349269312e-08
3.364790147e-08
1.267617083e-08
1.604730412e-09
2.067729729e-10
2.218905558e-10
2.521095305e-10
2.999135614e-10
3.696093923e-10
4.673178890e-10
6.015422300e-10
7.845508368e-10
1.035540150e-09
1.388068739e-09
1.908358668e-09
2.728766454e-09
4.402400085e-09
1.241980798e-08
2.515347236e-08
3.828740241e-08
4.344314459e-08
3.333072194e-08
1.248359493e-08
1.592639974e-09
2.212067590e-10
2.368402399e-10
2.680296910e-10
3.172373136e-10
3.887694501e-10
4.887774837e-10
6.258615927e-10
8.125241406e-10
1.068483521e-09
1.428446394e-09
1.961117880e-09
2.799575115e-09
4.729066789e-09
1.294979592e-08
2.571881474e-08
3.862048111e-08
4.338506618e-08
3.301813300e-08
1.229858245e-08
1.581428363e-09
2.360174455e-10
2.521584088e-10
2.843034811e-10
3.348942387e-10
4.082397219e-10
5.105271051e-10
6.504606220e-10
8.407904816e-10
1.101779113e-09
1.469323255e-09
2.014652584e-09
2.870120902e-09
5.065254594e-09
1.348050325e-08
2.627302374e-08
3.893802360e-08
4.331897689e-08
3.270980824e-08
1.212041914e-08
1.570964590e-09
2.511932444e-10
2.678338674e-10
3.009201577e-10
3.528750869e-10
4.280132596e-10
5.325623292e-10
6.753393185e-10
8.693547054e-10
1.135437173e-09
1.510718885e-09
2.068985326e-09
2.939927091e-09
5.410602099e-09
1.401155234e-08
2.681628334e-08
3.924067255e-08
4.324532404e-08
3.240545380e-08
1.194844679e-08
1.561130130e-09
2.667232733e-10
2.838561724e-10
3.178701931e-10
3.711718978e-10
4.480840197e-10
5.548801551e-10
7.004982449e-10
8.982217309e-10
1.169470951e-09
1.552654393e-09
2.124134524e-09
3.008333893e-09
5.764724283e-09
1.454260640e-08
2.734871102e-08
3.952901639e-08
4.316454527e-08
3.210478396e-08
1.178209762e-08
1.551826374e-09
2.825969924e-10
3.002151355e-10
3.351445090e-10
3.897764047e-10
4.684459135e-10
5.774775927e-10
7.259378936e-10
9.273973983e-10
1.203892090e-09
1.595152423e-09
2.180116400e-09
3.074438313e-09
6.127276764e-09
1.507332683e-08
2.787054094e-08
3.980364475e-08
4.307698068e-08
3.180749113e-08
1.162083717e-08
1.542954934e-09
2.988049984e-10
3.169016182e-10
3.527345184e-10
4.086820936e-10
4.890947414e-10
6.003528536e-10
7.516602071e-10
9.568885188e-10
1.238713888e-09
1.638232679e-09
2.236937611e-09
3.136962305e-09
6.497902476e-09
1.560341596e-08
2.838187266e-08
4.006506684e-08
4.298300410e-08
3.151334430e-08
1.146418343e-08
1.534437197e-09
3.153380347e-10
3.339071648e-10
3.706327153e-10
4.278828932e-10
5.100262357e-10
6.235043190e-10
7.776668111e-10
9.867015492e-10
1.273949579e-09
1.681918458e-09
2.294602719e-09
3.194096619e-09
6.876250685e-09
1.613260681e-08
2.888289552e-08
4.031378460e-08
4.288287865e-08
3.122209949e-08
1.131171197e-08
1.526204080e-09
3.321878611e-10
3.512237194e-10
3.888322363e-10
4.473728630e-10
5.312363350e-10
6.469310180e-10
8.039608361e-10
1.016843846e-09
1.309614222e-09
1.726231166e-09
2.353104159e-09
3.243211522e-09
7.261975518e-09
1.666057242e-08
2.937372270e-08
4.055020896e-08
4.277689002e-08
3.093350446e-08
1.116303770e-08
1.518189914e-09
3.493464965e-10
3.688439611e-10
4.073264284e-10
4.671474760e-10
5.527224972e-10
6.706324801e-10
8.305453322e-10
1.047323548e-09
1.345720489e-09
1.771193114e-09
2.412428383e-09
3.280417534e-09
7.654725656e-09
1.718709032e-08
2.985453906e-08
4.077479815e-08
4.266528598e-08
3.064736402e-08
1.101781703e-08
1.510338217e-09
3.668071936e-10
3.867612099e-10
4.261096280e-10
4.872019216e-10
5.744822983e-10
6.946094042e-10
8.574240787e-10
1.078149069e-09
1.382285030e-09
1.816825326e-09
2.472541586e-09
3.299869015e-09
8.054160332e-09
1.771187866e-08
3.032543026e-08
4.098792851e-08
4.254827871e-08
3.036346876e-08
1.087575533e-08
1.502596834e-09
3.845631071e-10
4.049694886e-10
4.451768503e-10
5.075323570e-10
5.965134740e-10
7.188623398e-10
8.846010498e-10
1.109328843e-09
1.419322663e-09
1.863148514e-09
2.533399825e-09
3.293050113e-09
8.459957340e-09
1.823473078e-08
3.078655948e-08
4.118994698e-08
4.242606511e-08
3.008164787e-08
1.073656078e-08
1.494921351e-09
4.026082047e-10
4.234631809e-10
4.645231387e-10
5.281361019e-10
6.188149142e-10
7.433922862e-10
9.120808518e-10
1.140872478e-09
1.456848482e-09
1.910185753e-09
2.594934385e-09
3.257091936e-09
8.871767107e-09
1.875539054e-08
3.123800743e-08
4.138117870e-08
4.229883172e-08
2.980170270e-08
1.059996370e-08
1.487269428e-09
4.209371410e-10
4.422369236e-10
4.841443278e-10
5.490098665e-10
6.413863036e-10
7.682011943e-10
9.398687264e-10
1.172789940e-09
1.494880503e-09
1.957955443e-09
2.657042043e-09
3.420688699e-09
9.289270841e-09
1.927366824e-08
3.167993446e-08
4.156196027e-08
4.216674902e-08
2.952349476e-08
1.046575499e-08
1.479604007e-09
4.395448076e-10
4.612869322e-10
5.040372370e-10
5.701517182e-10
6.642267136e-10
7.932913824e-10
9.679704455e-10
1.205091448e-09
1.533433710e-09
2.006476600e-09
2.719593891e-09
3.669477632e-09
9.712125378e-09
1.978933347e-08
3.211240371e-08
4.173258679e-08
4.202994071e-08
2.924685474e-08
1.033372283e-08
1.471899206e-09
4.584268724e-10
4.806086792e-10
5.241984125e-10
5.915597659e-10
6.873362756e-10
8.186649705e-10
9.963917835e-10
1.237788359e-09
1.572526494e-09
2.055766874e-09
2.782405480e-09
3.929441947e-09
1.014002143e-08
2.030220175e-08
3.253556127e-08
4.189328957e-08
4.188857603e-08
2.897165621e-08
1.020368848e-08
1.464122317e-09
4.775793630e-10
5.001990881e-10
5.446257405e-10
6.132328484e-10
7.107160492e-10
8.443255581e-10
1.025139654e-09
1.270891374e-09
1.612176464e-09
2.105842100e-09
2.845232133e-09
4.198717649e-09
1.057264134e-08
2.081206057e-08
3.294947037e-08
4.204436417e-08
4.174275506e-08
2.869777298e-08
1.007548148e-08
1.456254612e-09
4.969991631e-10
5.200546502e-10
5.653165611e-10
6.351700768e-10
7.343665645e-10
8.702765563e-10
1.054220275e-09
1.304411651e-09
1.652399305e-09
2.156714132e-09
2.907744176e-09
4.476854441e-09
1.100966298e-08
2.131875215e-08
3.335424294e-08
4.218600581e-08
4.159261711e-08
2.842508255e-08
9.948971204e-09
1.448277164e-09
5.166826768e-10
5.401733690e-10
5.862691748e-10
6.573712863e-10
7.582893329e-10
8.965219947e-10
1.083641747e-09
1.338362501e-09
1.693214966e-09
2.208394144e-09
2.969503521e-09
4.763603426e-09
1.145079403e-08
2.182206225e-08
3.374995558e-08
4.231846925e-08
4.143825519e-08
2.815347789e-08
9.824028136e-09
1.440172523e-09
5.366277549e-10
5.605527197e-10
6.074829628e-10
6.798362727e-10
7.824867900e-10
9.230661956e-10
1.113411504e-09
1.372755611e-09
1.734641546e-09
2.260885433e-09
3.029919032e-09
5.058744466e-09
1.189572778e-08
2.232186958e-08
3.413671219e-08
4.244197625e-08
4.127977441e-08
2.788287710e-08
9.700521837e-09
1.431925554e-09
5.568325405e-10
5.811912609e-10
6.289566462e-10
7.025655091e-10
8.069607202e-10
9.499135107e-10
1.143538511e-09
1.407604647e-09
1.776696539e-09
2.314188030e-09
3.088184965e-09
5.362069551e-09
1.234414165e-08
2.281796646e-08
3.451455601e-08
4.255667885e-08
4.111728373e-08
2.761318092e-08
9.578362999e-09
1.423519153e-09
5.772947586e-10
6.020881039e-10
6.506895738e-10
7.255602374e-10
8.317135772e-10
9.770700704e-10
1.174030132e-09
1.442923042e-09
1.819398470e-09
2.368296005e-09
3.143199168e-09
5.673386158e-09
1.279576896e-08
2.331022436e-08
3.488360134e-08
4.266279996e-08
4.095082429e-08
2.734432334e-08
9.457437955e-09
1.414942648e-09
5.980135103e-10
6.232414049e-10
6.726823371e-10
7.488215859e-10
8.567491729e-10
1.004540722e-09
1.204896491e-09
1.478724844e-09
1.862765144e-09
2.423192462e-09
3.193423576e-09
5.992484706e-09
1.325029709e-08
2.379847179e-08
3.524389618e-08
4.276048891e-08
4.078052243e-08
2.707619468e-08
9.337673007e-09
1.406183926e-09
6.189879111e-10
6.446518928e-10
6.949351646e-10
7.723510790e-10
8.820709036e-10
1.032331624e-09
1.236147073e-09
1.515024012e-09
1.906813929e-09
2.478851611e-09
3.236688724e-09
6.319151102e-09
1.370744882e-08
2.428257030e-08
3.559551484e-08
4.284992093e-08
4.060642022e-08
2.680875108e-08
9.218984094e-09
1.397235877e-09
6.402171227e-10
6.663185700e-10
7.174487338e-10
7.961509008e-10
9.076821671e-10
1.060449676e-09
1.267791154e-09
1.551835803e-09
1.951563808e-09
2.535233020e-09
3.269867532e-09
6.653181363e-09
1.416695588e-08
2.476240447e-08
3.593852984e-08
4.293126599e-08
4.042862577e-08
2.654191983e-08
9.101300503e-09
1.388091743e-09
6.617014850e-10
6.882422907e-10
7.402239666e-10
8.202234188e-10
9.335874103e-10
1.088901214e-09
1.299840361e-09
1.589174660e-09
1.997029644e-09
2.592279034e-09
3.288406723e-09
6.994345544e-09
1.462853217e-08
2.523779563e-08
3.627299307e-08
4.300463807e-08
4.024718621e-08
2.627567877e-08
8.984573691e-09
1.378751746e-09
6.834412081e-10
7.104234118e-10
7.632631288e-10
8.445718200e-10
9.597911822e-10
1.117693256e-09
1.332304897e-09
1.627056026e-09
2.043226387e-09
2.649907701e-09
3.285825966e-09
7.342419248e-09
1.509191194e-08
2.570862022e-08
3.659896618e-08
4.307020961e-08
4.006215372e-08
2.600993839e-08
8.868754326e-09
1.369211918e-09
7.054363563e-10
7.328634217e-10
7.865670807e-10
8.691986682e-10
9.862993921e-10
1.146833910e-09
1.365195646e-09
1.665496168e-09
2.090169676e-09
2.708011529e-09
3.255917153e-09
7.697182475e-09
1.555681785e-08
2.617479037e-08
3.691651421e-08
4.312809077e-08
3.987362253e-08
2.574468763e-08
8.753798815e-09
1.359471025e-09
7.276883864e-10
7.555631357e-10
8.101389634e-10
8.941077227e-10
1.013116281e-09
1.176330850e-09
1.398524524e-09
1.704511012e-09
2.137870316e-09
2.766446763e-09
3.330074253e-09
8.058395898e-09
1.602301057e-08
2.663613194e-08
3.722570330e-08
4.317841872e-08
3.968161980e-08
2.547989603e-08
8.639679755e-09
1.349531607e-09
7.501989421e-10