/*--------------------------------*- C++ -*----------------------------------*\
| =========                 |                                                 |
| \\      /  F ield         | OpenFOAM: The Open Source CFD Toolbox           |
|  \\    /   O peration     | Version:  5.x                                   |
|   \\  /    A nd           | Web:      www.OpenFOAM.org                      |
|    \\/     M anipulation  |                                                 |
\*---------------------------------------------------------------------------*/
FoamFile
{
    version     2.0;
    format      ascii;
    class       volScalarField;
    location    "3.5";
    object       HO2;
}
// * * * * * * * * * * * * * * * * * * * * * * * * * * * * * * * * * * * * * //

dimensions      [0 0 0 0 0 0 0];

internalField   nonuniform List<scalar>
51080
(
0.000000000e+00
0.000000000e+00
0.000000000e+00
0.000000000e+00
0.000000000e+00
0.000000000e+00
0.000000000e+00
0.000000000e+00
0.000000000e+00
0.000000000e+00
2.537364308e-50
1.179441524e-49
5.338058256e-49
3.216212198e-48
3.010951803e-47
4.491154416e-46
1.214204531e-44
8.166107017e-43
3.009200704e-40
3.106886427e-36
0.000000000e+00
0.000000000e+00
0.000000000e+00
0.000000000e+00
0.000000000e+00
0.000000000e+00
0.000000000e+00
0.000000000e+00
1.017068055e-50
3.859242738e-50
1.793107384e-49
8.224423462e-49
5.170600355e-48
5.288715643e-47
8.472073877e-46
2.465783345e-44
1.757309422e-42
5.172628420e-40
1.391629869e-36
9.542094408e-33
0.000000000e+00
0.000000000e+00
0.000000000e+00
0.000000000e+00
0.000000000e+00
0.000000000e+00
0.000000000e+00
1.520028342e-50
5.610248700e-50
2.594280067e-49
1.189946475e-48
7.391296391e-48
7.426123190e-47
1.131611425e-45
2.985788057e-44
1.780308193e-42
3.578872818e-40
4.000780435e-37
1.173601648e-33
6.285356089e-31
0.000000000e+00
0.000000000e+00
0.000000000e+00
0.000000000e+00
0.000000000e+00
7.808520913e-51
2.231856791e-50
7.638832183e-50
3.157112938e-49
1.575472954e-48
9.338245869e-48
8.962976967e-47
1.258953555e-45
2.854267665e-44
1.372040353e-42
1.864795536e-40
1.075437738e-37
1.800010808e-34
1.011990301e-31
9.224453664e-30
0.000000000e+00
0.000000000e+00
0.000000000e+00
0.000000000e+00
1.282208465e-50
3.415019960e-50
1.104010279e-49
4.390918447e-49
2.196185120e-48
1.115426752e-47
9.842151799e-47
1.236159793e-45
2.378684743e-44
9.116041055e-43
8.594077518e-41
2.812315996e-38
2.853314745e-35
1.740453561e-32
1.903035441e-30
6.831466137e-29
0.000000000e+00
7.123984925e-51
1.138265944e-50
2.238409454e-50
5.404015217e-50
1.606706308e-49
5.938576254e-49
2.775984200e-48
1.319891186e-47
1.016463782e-46
1.116080374e-45
1.810458621e-44
5.531666194e-43
3.709271202e-41
7.335502093e-39
4.523758088e-36
2.822948608e-33
4.043816617e-31
1.590254809e-29
3.643692704e-28
1.943128057e-50
2.559978112e-50
4.294862271e-50
9.065047596e-50
2.401151178e-49
8.013340688e-49
3.407970313e-48
1.483746870e-47
1.000844878e-46
9.484282337e-46
1.293834689e-44
3.157278891e-43
1.538147246e-41
1.924419441e-39
7.182323244e-37
4.101475159e-34
7.960518345e-32
3.858919715e-30
8.559685097e-29
1.720420165e-27
7.025740788e-50
9.506590077e-50
1.677044972e-49
3.806621543e-49
1.109065476e-48
4.168696434e-48
1.624506544e-47
9.443971027e-47
7.716043677e-46
8.857529665e-45
1.730685370e-43
6.233807720e-42
5.118132533e-40
1.159469822e-37
5.307961437e-35
1.354362203e-32
8.859896703e-31
2.187974358e-29
3.629665463e-28
8.709303873e-27
2.596795314e-49
3.609045342e-49
6.695499322e-49
1.634821011e-48
5.241461382e-48
1.769659123e-47
8.583547428e-47
5.930533812e-46
6.071454243e-45
9.361544575e-44
2.515531477e-42
1.395323196e-40
1.942193145e-38
6.315481678e-36
1.906937750e-33
1.791742494e-31
5.481519474e-30
9.089987704e-29
1.382773297e-27
6.922289740e-26
9.703804443e-49
1.383774694e-48
2.696486505e-48
7.076042288e-48
2.004181166e-47
7.974245152e-47
4.668878925e-46
3.973274893e-45
5.003257239e-44
1.022682015e-42
3.942806050e-41
3.446532349e-39
7.306663793e-37
2.204339781e-34
3.004031625e-32
1.251310171e-30
2.345540678e-29
3.135553290e-28
5.316379012e-27
7.184223788e-19
3.635000324e-48
5.279372127e-48
1.073962593e-47
2.443851696e-47
7.852861876e-47
3.819898023e-46
2.661786578e-45
2.690237616e-44
4.237514172e-43
1.166579011e-41
6.595974671e-40
8.740392185e-38
2.177802871e-35
3.988539778e-33
2.441758079e-31
5.737763941e-30
7.914633833e-29
9.770535749e-28
2.436551506e-26
1.075715694e-15
1.433978087e-47
1.961012969e-47
3.346463358e-47
8.548947607e-47
3.424050838e-46
1.897262632e-45
1.516168933e-44
1.835564111e-43
3.671871433e-42
1.383781152e-40
1.138072944e-38
2.001067360e-36
4.144351616e-34
3.836194863e-32
1.245194599e-30
1.987230110e-29
2.286910152e-28
2.945838503e-27
2.347118987e-25
5.542998966e-14
3.673936987e-47
5.265649484e-47
1.105544601e-46
3.422157547e-46
1.490743275e-45
9.280679780e-45
8.584710075e-44
1.258652358e-42
3.241267015e-41
1.678649622e-39
1.893535042e-37
3.534756938e-35
4.630708499e-33
2.250871929e-31
4.604445646e-30
5.678426125e-29
5.984080415e-28
9.255418289e-27
5.929527427e-18
9.670428950e-13
1.119730123e-46
1.761291202e-46
4.086712618e-46
1.350090180e-45
6.414806623e-45
4.484951418e-44
4.830428769e-43
8.657498308e-42
2.890851875e-40
2.015139896e-38
2.765243508e-36
4.266608549e-34
3.191151539e-32
9.224398669e-31
1.359052154e-29
1.418003335e-28
1.479058495e-27
3.420071878e-26
9.388032053e-16
8.943772006e-12
3.955204246e-46
6.294575068e-46
1.502209199e-45
5.263528636e-45
2.725571565e-44
2.143240766e-43
2.701176139e-42
5.954039543e-41
2.565572096e-39
2.276061530e-37
3.210700065e-35
3.403342021e-33
1.499221336e-31
2.920291938e-30
3.410989955e-29
3.218789583e-28
3.581951331e-27
2.225324428e-25
2.307756538e-14
5.402304998e-11
1.361797810e-45
2.203280753e-45
5.445986609e-45
2.024714044e-44
1.143303940e-43
1.013350483e-42
1.500053481e-41
4.067865943e-40
2.211243872e-38
2.276085122e-36
2.765520985e-34
1.866774656e-32
5.278391016e-31
7.657247429e-30
7.596820934e-29
6.833397903e-28
8.836447000e-27
6.451985216e-19
2.546487318e-13
2.404576840e-10
4.598865825e-45
7.579363873e-45
1.945281941e-44
7.682575994e-44
4.736557566e-43
4.741563002e-42
8.254103517e-41
2.731160829e-39
1.790872513e-37
1.898387325e-35
1.735321337e-33
7.539582040e-32
1.498216563e-30
1.744428324e-29
1.546634659e-28
1.386870408e-27
2.344610784e-26
1.156212351e-16
1.708191662e-12
8.516429954e-10
1.528469596e-44
2.568203666e-44
6.852007069e-44
2.877504512e-43
1.939299499e-42
2.194798097e-41
4.480637468e-40
1.773799730e-38
1.313444814e-36
1.265877717e-34
8.125554514e-33
2.396706589e-31
3.614497017e-30
3.569947561e-29
2.940616229e-28
2.740587997e-27
7.489390885e-26
2.262223065e-15
8.098494383e-12
2.526581507e-09
5.011424815e-44
8.588026894e-44
2.383356436e-43
1.065055142e-42
7.851423358e-42
1.003672768e-40
2.382827233e-39
1.092164858e-37
8.417411661e-36
6.650737623e-34
2.966454265e-32
6.330968549e-31
7.697492895e-30
6.721227038e-29
5.305168263e-28
5.363323043e-27
4.635538776e-25
2.063958992e-14
2.970530259e-11
6.504261835e-09
1.624136506e-43
2.839214128e-43
8.198695072e-43
3.899855351e-42
3.143499445e-41
4.522142328e-40
1.229496737e-38
6.235253016e-37
4.585911206e-35
2.781817630e-33
8.842715638e-32
1.448357633e-30
1.487089759e-29
1.184644652e-28
9.193870213e-28
1.058482026e-26
4.194203302e-19
1.195227484e-13
8.948067021e-11
1.489187917e-08
5.211897623e-43
9.294990384e-43
2.793056608e-42
1.413810429e-41
1.243812933e-40
1.998935606e-39
6.081262297e-38
3.230939826e-36
2.095744810e-34
9.500196911e-33
2.241012652e-31
2.959631929e-30
2.658940163e-29
1.980399766e-28
1.545578903e-27
2.156267426e-26
2.987087455e-17
5.053582272e-13
2.307511067e-10
3.084974121e-08
1.658597166e-42
3.017521874e-42
9.433109788e-42
5.075972933e-41
4.855837565e-40
8.617367095e-39
2.844462749e-37
1.491875191e-35
8.042023204e-34
2.730326274e-32
4.988834870e-31
5.528012223e-30
4.466495927e-29
3.171653119e-28
2.541109543e-27
4.708853530e-26
3.561571755e-16
1.692135443e-12
5.249618124e-10
5.850710402e-08
5.240724609e-42
9.724448907e-42
3.160413420e-41
1.804060168e-40
1.865270357e-39
3.596014222e-38
1.241770803e-36
6.066704656e-35
2.622021634e-33
6.798425114e-32
1.000806212e-30
9.603121799e-30
7.129533988e-29
4.904337823e-28
4.115298499e-27
1.198503838e-25
2.288453484e-15
4.731435990e-12
1.077424409e-09
1.023718236e-07
1.645606434e-41
3.112973626e-41
1.050449496e-40
6.339449289e-40
7.022218133e-39
1.440113915e-37
4.997431554e-36
2.164055370e-34
7.392911032e-33
1.504222876e-31
1.845414291e-30
1.572287994e-29
1.091004852e-28
7.367891256e-28
6.608911526e-27
4.822308893e-25
1.021726744e-14
1.146541894e-11
2.029096213e-09
1.661100634e-07
5.137228620e-41
9.900082865e-41
3.461691486e-40
2.197797513e-39
2.577883883e-38
5.486526770e-37
1.836151989e-35
6.792768657e-34
1.837865348e-32
3.020145783e-31
3.176127846e-30
2.451263624e-29
1.611698467e-28
1.080866502e-27
1.059628860e-26
6.976671624e-21
3.545629337e-14
2.474042974e-11
3.553147801e-09
2.509964836e-07
1.594258419e-40
3.126481435e-40
1.129541136e-39
7.494158545e-39
9.173081605e-38
1.971790356e-36
6.123880718e-35
1.891913660e-33
4.103769825e-32
5.596605668e-31
5.163792390e-30
3.668515111e-29
2.311255456e-28
1.554851204e-27
1.709135936e-26
2.589407663e-18
1.019408908e-13
4.852142866e-11
5.845941736e-09
3.548842634e-07
4.914915653e-40
9.793460013e-40
3.641584916e-39
2.503444499e-38
3.143724531e-37
6.633364560e-36
1.851178733e-34
4.728364069e-33
8.367521731e-32
9.703128117e-31
8.005898296e-30
5.304267102e-29
3.232034813e-28
2.201072493e-27
2.800105650e-26
2.610799961e-17
2.531066805e-13
8.787080992e-11
9.113412652e-09
4.725211118e-07
1.503223957e-39
3.037292492e-39
1.156613390e-38
8.154308872e-38
1.031271904e-36
2.076738159e-35
5.083572415e-34
1.073502794e-32
1.580127093e-31
1.591210856e-30
1.192583868e-29
7.448056884e-29
4.423594689e-28
3.075686823e-27
4.724858005e-26
1.366092870e-16
5.586914314e-13
1.487865088e-10
1.355440431e-08
5.971107968e-07
4.552058929e-39
9.302579492e-39
3.605915162e-38
2.576546921e-37
3.218239193e-36
6.029853172e-35
1.274777458e-33
2.240797839e-32
2.796471713e-31
2.489896656e-30
1.717263644e-29
1.019945458e-28
5.944020468e-28
4.253993578e-27
8.406477170e-26
5.112934873e-16
1.120072532e-12
2.379200569e-10
1.934347815e-08
7.221126117e-07
1.361166131e-38
2.804750355e-38
1.098839418e-37
7.858176474e-37
9.503280743e-36
1.622187202e-34
2.939505021e-33
4.348344970e-32
4.683990381e-31
3.744169986e-30
2.402092203e-29
1.366905064e-28
7.861658480e-28
5.838229574e-27
1.654296005e-25
1.538840789e-15
2.073035105e-12
3.622241010e-10
2.661547052e-08
8.424122197e-07
4.005958990e-38
8.293124555e-38
3.258342761e-37
2.301433392e-36
2.644994922e-35
4.049010829e-34
6.281814443e-33
7.922071944e-32
7.485656168e-31
5.442071002e-30
3.277199308e-29
1.797975539e-28
1.025727299e-27
7.969346665e-27
4.091776379e-25
3.954410919e-15
3.587440137e-12
5.285734144e-10
3.545320481e-08
9.546482218e-07
1.155993937e-37
2.394838794e-37
9.360282700e-37
6.441988307e-36
6.922468512e-35
9.406399372e-34
1.254063929e-32
1.366640349e-31
1.149114878e-30
7.681905521e-30
4.375511956e-29
2.326854837e-28
1.322673085e-27
1.084510790e-26
2.297385686e-24
8.998143535e-15
5.863936798e-12
7.434024437e-10
4.588124149e-08
1.057023420e-06
3.257800902e-37
6.726821118e-37
2.593123013e-36
1.716827661e-35
1.702571948e-34
2.042896786e-33
2.356565277e-32
2.248775021e-31
1.703832027e-30
1.057248749e-29
5.732981250e-29
2.968850960e-28
1.688452331e-27
1.474907988e-26
4.150872321e-20
1.858087129e-14
9.128368048e-12
1.012418813e-09
5.786460710e-08
1.148921791e-06
8.930957473e-37
1.830044784e-36
6.899132375e-36
4.344647491e-35
3.938617509e-34
4.169176098e-33
4.197648457e-32
3.551514788e-31
2.451479035e-30
1.423347724e-29
7.388893840e-29
3.741139164e-28
2.136806312e-27
2.009851422e-26
1.040698320e-18
3.543869669e-14
1.362460537e-11
1.340385963e-09
7.131352569e-08
1.230493426e-06
2.371812462e-36
4.802446274e-36
1.756786589e-35
1.042533552e-34
8.588334239e-34
8.038742438e-33
7.132392256e-32
5.411868474e-31
3.435940244e-30
1.879586901e-29
9.386186327e-29
4.663068935e-28
2.684345739e-27
2.752718618e-26
5.751251563e-18
6.326215334e-14
1.960698862e-11
1.730968284e-09
8.609000102e-08
1.302325053e-06
6.078690079e-36
1.211399910e-35
4.270928078e-35
2.371712338e-34
1.770647096e-33
1.472302934e-32
1.162470263e-31
7.992661186e-31
4.706409658e-30
2.440292188e-29
1.177199647e-28
5.756518214e-28
3.351263456e-27
3.803678457e-26
2.033635687e-17
1.067895929e-13
2.733272008e-11
2.186690147e-09
1.020189561e-07
1.365219012e-06
1.498560060e-35
2.929182560e-35
9.898859813e-35
5.120105817e-34
3.464164169e-33
2.574539073e-32
1.826252935e-31
1.148408186e-30
6.317638941e-30
3.121086022e-29
1.459808652e-28
7.046319324e-28
4.162295281e-27
5.329253639e-26
5.682501300e-17
1.718645890e-13
3.705584862e-11
2.709044879e-09
1.189084892e-07
1.420148882e-06
3.544840867e-35
6.777048892e-35
2.186471469e-34
1.050855314e-33
6.456801305e-33
4.318777216e-32
2.777246419e-31
1.610524041e-30
8.330199815e-30
3.939012641e-29
1.792147183e-28
8.560782415e-28
5.147921621e-27
7.625065234e-26
1.362971532e-16
2.654538183e-13
4.902167565e-11
3.298471596e-09
1.365526207e-07
1.468027922e-06
8.032984498e-35
1.498942441e-34
4.605212585e-34
2.055601761e-33
1.151140232e-32
6.979971997e-32
4.103344108e-31
2.210582757e-30
1.081083766e-29
4.912693037e-29
2.180523272e-28
1.033229619e-27
6.346060428e-27
1.126426755e-25
2.928253740e-16
3.956362136e-13
6.346320157e-11
3.954499608e-09
1.547446183e-07
1.509697216e-06
1.742620745e-34
3.169490201e-34
9.261855149e-34
3.843583750e-33
1.970721695e-32
1.091104528e-31
5.909059047e-31
2.976764514e-30
1.383282709e-29
6.062434671e-29
2.631915219e-28
1.239806651e-27
7.804248736e-27
1.750384784e-25
5.780939478e-16
5.715706457e-13
8.059785549e-11
4.675911089e-09
1.732871756e-07
1.545949226e-06
3.619398958e-34
6.412224915e-34
1.782162712e-33
6.891306915e-33
3.251745674e-32
1.655391363e-31
8.316804864e-31
3.940678726e-30
1.747652420e-29
7.410457990e-29
3.154080762e-28
1.480093868e-27
9.582660475e-27
2.965389642e-25
1.066619692e-15
8.034460968e-13
1.006270879e-10
5.460847352e-09
1.919938306e-07
1.577450199e-06
7.203634704e-34
1.243022750e-33
3.288811816e-33
1.188569540e-32
5.189151937e-32
2.445044850e-31
1.146820646e-30
5.137521293e-30
2.182989618e-29
8.981078103e-29
3.755659223e-28
1.759051770e-27
1.175829352e-26
5.947985606e-25
1.861486391e-15
1.102445913e-12
1.237389756e-10
6.307262771e-09
2.107195291e-07
1.604926051e-06
1.375890230e-33
2.313370294e-33
5.836007829e-33
1.978203293e-32
8.034068820e-32
3.525345700e-31
1.552552107e-30
6.606330726e-30
2.698892464e-29
1.080095676e-28
4.446281511e-28
2.082434748e-27
1.443080739e-26
1.834368076e-24
3.100409840e-15
1.480670461e-12
1.501052949e-10
7.212693617e-09
2.293307871e-07
1.628915214e-06
2.526700166e-33
4.142734675e-33
9.985546449e-33
3.186741891e-32
1.210251143e-31
4.973745682e-31
2.067286317e-30
8.390232379e-30
3.305868658e-29
1.289930950e-28
5.236730210e-28
2.456948781e-27
1.773096314e-26
7.166604952e-23
4.962288485e-15
1.951102313e-12
1.798822670e-10
8.174401128e-09
2.477058864e-07
1.649831873e-06
4.471016044e-33
7.155908812e-33
1.651937968e-32
4.982858432e-32
1.778431592e-31
6.880921816e-31
2.711777359e-30
1.053670842e-29
4.015385191e-29
1.530827337e-28
6.139087674e-28
2.890436143e-27
2.183302036e-26
7.953703601e-20
7.673780778e-15
2.527572330e-12
2.132155570e-10
9.189636675e-09
2.657538006e-07
1.668095031e-06
7.641113104e-33
1.195261267e-32
2.649329683e-32
7.582282913e-32
2.555193070e-31
9.351920155e-31
3.509279640e-30
1.309792996e-29
4.839968615e-29
1.806322918e-28
7.166933250e-28
3.392101839e-27
2.697316266e-26
5.600245216e-19
1.151638224e-14
3.224724478e-12
2.502416209e-10
1.025574072e-08
2.834056404e-07
1.684068136e-06
1.264268987e-32
1.935350190e-32
4.129475830e-32
1.125519231e-31
3.596958892e-31
1.250722805e-30
4.485693474e-30
1.613107813e-29
5.793299138e-29
2.120307830e-28
8.335545323e-28
3.972805236e-27
3.347867403e-26
1.969947548e-18
1.683386425e-14
4.058021635e-12
2.910896477e-10
1.137017934e-08
3.006137223e-07
1.698056032e-06
2.029936822e-32
3.045053886e-32
6.270467078e-32
1.633368043e-31
4.970213934e-31
1.648387695e-30
5.669762683e-30
1.969870700e-29
6.890308504e-29
2.477080250e-28
9.662152142e-28
4.645410133e-27
4.181358943e-26
5.224195313e-18
2.403929904e-14
5.043742893e-12
3.358833003e-10
1.253058792e-08
3.173422914e-07
1.710327744e-06
3.170139769e-32
4.666139788e-32
9.296063560e-32
2.321946103e-31
6.752442728e-31
2.143667287e-30
7.093249534e-30
2.386929957e-29
8.147364284e-29
2.881389195e-28
1.116625446e-27
5.425203137e-27
5.265581969e-26
1.180685954e-17
3.362353589e-14
6.198958091e-12
3.847398285e-10
1.373449655e-08
3.335592325e-07
1.721051269e-06
4.825796560e-32
6.978687571e-32
1.348245788e-31
3.239150757e-31
9.033046208e-31
2.753950486e-30
8.791174702e-30
2.871754399e-29
9.582316652e-29
3.338475789e-28
1.286992783e-27
6.330500425e-27
6.703045514e-26
2.400470892e-17
4.616315143e-14
7.541665674e-12
4.377896616e-10
1.498056603e-08
3.492806968e-07
1.730518025e-06
7.175235923e-32
1.020708562e-31
1.916488318e-31
4.441420246e-31
1.191429063e-30
3.498647161e-30
1.080201515e-29
3.432507718e-29
1.121470513e-28
3.854152828e-28
1.479826179e-27
7.383302794e-27
8.655724181e-26
4.519993394e-17
6.232899769e-14
9.090788827e-12
4.951611237e-10
1.626763145e-08
3.645218831e-07
1.738933056e-06
1.044000630e-31
1.462618711e-31
2.674483270e-31
5.994488653e-31
1.551227212e-30
4.399347236e-30
1.316795962e-29
4.078081160e-29
1.306595438e-28
4.434871767e-28
1.697972897e-27
8.610239980e-27
1.139345234e-25
8.023081809e-17
8.289463570e-14
1.086602394e-11
5.569684980e-10
1.759370351e-08
3.792642954e-07
1.746323683e-06
1.489082779e-31
2.056774170e-31
3.669669518e-31
7.974273461e-31
1.995797486e-30
5.479959822e-30
1.593522174e-29
4.818183501e-29
1.515948752e-28
5.087781960e-28
1.944692997e-27
1.004370852e-26
1.539818014e-25
1.358290140e-16
1.087464693e-13
1.288808472e-11
6.233430289e-10
1.895750477e-08
3.935177398e-07
1.752835511e-06
2.085371948e-31
2.842677688e-31
4.957542398e-31
1.046759881e-30
2.539836898e-30
6.766878259e-30
1.915427652e-29
5.663397623e-29
1.752101304e-28
5.820841315e-28
2.223706157e-27
1.172346325e-26
2.161248176e-25
2.211421318e-16
1.408924317e-13
1.517877315e-11
6.944166116e-10
2.035829582e-08
4.073065214e-07
1.758598344e-06
2.871631263e-31
3.866831222e-31
6.602348075e-31
1.357321493e-30
3.199737042e-30
8.289133214e-30
2.288029265e-29
6.625262957e-29
2.017873832e-28
6.642910837e-28
2.539277364e-27
1.369863805e-26
3.212569266e-25
3.483519104e-16
1.804766256e-13
1.776096224e-11
7.703339655e-10
2.179551098e-08
4.206550763e-07
1.763710638e-06
3.893406867e-31
5.183416602e-31
8.677842286e-31
1.740250958e-30
3.993725263e-30
1.007864537e-29
2.717337413e-29
7.716357647e-29
2.316362727e-28
7.563859176e-28
2.896309714e-27
1.603050788e-26
5.249934816e-25
5.333947120e-16
2.287842620e-13
2.065871998e-11
8.512451495e-10
2.326891260e-08
4.335875490e-07
1.768256616e-06
5.203727804e-31
6.854971822e-31
1.126810743e-30
2.208062338e-30
4.941986800e-30
1.217032970e-29
3.209910493e-29
8.950442234e-29
2.650972963e-28
8.594731918e-28
3.300469028e-27
1.879621775e-26
1.026261229e-24
7.967996688e-16
2.872598703e-13
2.389744406e-11
9.373061965e-10
2.477828962e-08
4.461306957e-07
1.772310247e-06
6.863729829e-31
8.953125828e-31
1.446832978e-30
2.774730541e-30
6.066769019e-30
1.460242127e-29
3.772886958e-29
1.034243978e-28
3.025441294e-28
9.747852486e-28
3.758286664e-27
2.209398950e-26
3.098715291e-24
1.164644245e-15
3.575157348e-13
2.750377759e-11
1.028693520e-09
2.632387920e-08
4.583115104e-07
1.775934479e-06
8.943389442e-31
1.155934394e-30
1.838554530e-30
3.455794004e-30
7.392587846e-30
1.741669154e-29
4.414029805e-29
1.190875149e-28
3.443898001e-28
1.103704724e-27
4.277367893e-27
2.605043730e-26
8.092424978e-23
1.669666880e-15
4.413482111e-13
3.150587268e-11
1.125579592e-09
2.790592293e-08
4.701544042e-07
1.779186593e-06
1.152218637e-30
1.476563689e-30
2.313972877e-30
4.268482625e-30
8.946336239e-30
2.065859878e-29
5.141817825e-29
1.366717700e-28
3.910878438e-28
1.247784807e-27
4.866545697e-27
3.083095538e-26
3.411163365e-20
2.352490440e-15
5.407470354e-13
3.593329020e-11
1.228158937e-09
2.952494208e-08
4.816871497e-07
1.782115560e-06
1.468987465e-30
1.867535765e-30
2.886436965e-30
5.231805687e-30
1.075747238e-29
2.437777885e-29
5.965437456e-29
1.563726778e-28
4.431398222e-28
1.408766049e-27
5.536163658e-27
3.665535630e-26
2.244195100e-19
3.263071567e-15
6.579212405e-13
4.081720747e-11
1.336629132e-09
3.118163875e-08
4.929347667e-07
1.784764957e-06
1.854732713e-30
2.340416568e-30
3.570795223e-30
6.366694737e-30
1.285817641e-29
2.862821343e-29
6.894926608e-29
1.784027546e-28
5.010987475e-28
1.588610784e-27
6.298338258e-27
4.382074763e-26
7.336268802e-19
4.462231041e-15
7.953037080e-13
4.619073485e-11
1.451208587e-09
3.287679584e-08
5.039225761e-07
1.787174884e-06
2.320714045e-30
2.908063824e-30
4.383432917e-30
7.696166619e-30
1.528366665e-29
3.346864533e-29
7.941165886e-29
2.029954622e-28
5.655764814e-28
1.789541438e-27
7.167381439e-27
5.273797907e-26
1.820250359e-18
6.023449547e-15
9.555696053e-13
5.208866023e-11
1.572121890e-09
3.461146068e-08
5.146736895e-07
1.789379245e-06
2.879468416e-30
3.584752391e-30
5.342433111e-30
9.245378606e-30
1.807219448e-29
3.896296013e-29
9.116045841e-29
2.304054758e-28
6.372497069e-28
2.014054787e-27
8.160238847e-27
6.398897323e-26
3.880905412e-18
8.034854156e-15
1.141666216e-12
5.854732460e-11
1.699613084e-09
3.638671502e-08
5.252118234e-07
1.791408716e-06
3.544895041e-30
4.386235906e-30
6.467690392e-30
1.104190052e-29
2.126550129e-29
4.518056425e-29
1.043245622e-28
2.609123262e-28
7.168702105e-28
2.264996869e-27
9.297043384e-27
7.842405091e-26
7.502884888e-18
1.060144255e-14
1.356822167e-12
6.560569765e-11
1.833929086e-09
3.820366714e-08
5.355584408e-07
1.793290735e-06
4.332337562e-30
5.329883652e-30
7.780994915e-30
1.311579387e-29
2.490898618e-29
5.219678006e-29
1.190447629e-28
2.948221224e-28
8.052684630e-28
2.545584894e-27
1.060192159e-26
9.732954552e-26
1.353178098e-17
1.384739409e-14
1.604573067e-12
7.330463860e-11
1.975341980e-09
4.006380022e-08
5.457358782e-07
1.795049360e-06
5.258706949e-30
6.434781875e-30
9.306224350e-30
1.549987968e-29
2.905201608e-29
6.009362607e-29
1.354743077e-28
3.324702984e-28
9.033717430e-28
2.859488075e-27
1.210390903e-26
1.227389570e-25
2.315540458e-17
1.791889824e-14
1.888758117e-12
8.168691122e-11
2.124133177e-09
4.196860845e-08
5.557615017e-07
1.796705704e-06
6.342557287e-30
7.721823272e-30
1.106944703e-29
1.822976370e-29
3.374807369e-29
6.895999000e-29
1.537798628e-28
3.742251289e-28
1.012207905e-27
3.210897518e-27
1.383822599e-26
1.580480468e-25
3.800979864e-17
2.298691838e-14
2.213604212e-12
9.079817063e-11
2.280593514e-09
4.391944162e-08
5.656545480e-07
1.798279525e-06
7.604252132e-30
9.213881728e-30
1.309906716e-29
2.134430580e-29
3.905545734e-29
7.889262801e-29
1.741435653e-28
4.204920217e-28
1.132923298e-27
3.604592674e-27
1.584777424e-26
2.093304238e-25
6.030771007e-17
2.925064828e-14
2.583674500e-12
1.006861868e-10
2.445046250e-09
4.591817488e-08
5.754332108e-07
1.799787906e-06
9.066024647e-30
1.093593394e-29
1.542605517e-29
2.488569248e-29
4.503730771e-29
8.999645831e-29
1.967635057e-28
4.717153795e-28
1.266797670e-27
4.046076059e-27
1.818542213e-26
2.884821987e-25
9.299542065e-17
3.694119201e-14
3.003956020e-12
1.114020566e-10
2.617810135e-09
4.796655516e-08
5.851124374e-07
1.801245758e-06
1.075216772e-29
1.291518524e-29
1.808411305e-29
2.889964680e-29
5.176198370e-29
1.023855012e-28
2.218565428e-28
5.283852240e-28
1.415263095e-27
4.541666428e-27
2.091670346e-26
4.218750188e-25
1.399424547e-16
4.632440685e-14
3.479840740e-12
1.229981191e-10
2.799231390e-09
5.006610199e-08
5.947085330e-07
1.802665644e-06
1.268912829e-29
1.518125431e-29
2.110979377e-29
3.343592475e-29
5.930392992e-29
1.161835984e-28
2.496590178e-28
5.910412467e-28
1.579914582e-27
5.098662144e-27
2.412381689e-26
6.794795626e-25
2.061660815e-16
5.770678115e-14
4.017202948e-12
1.355316103e-10
2.989664069e-09
5.221895737e-08
6.042345872e-07
1.804060109e-06
1.490575273e-29
1.776634407e-29
2.454283085e-29
3.854830743e-29
6.774368963e-29
1.315257526e-28
2.804294182e-28
6.602791703e-28
1.762552363e-27
5.725511861e-27
2.791073405e-26
1.308756038e-24
2.980994046e-16
7.143833779e-14
4.622369274e-12
1.490613915e-10
3.189502029e-09
5.442678639e-08
6.137036973e-07
1.805440350e-06
1.743331636e-29
2.070544810e-29
2.842636555e-29
4.429515551e-29
7.716855652e-29
1.485583362e-28
3.144498428e-28
7.367550095e-28
1.965190186e-27
6.432024540e-27
3.241097793e-26
3.835970877e-24
4.239116452e-16
8.791946324e-14
5.302214012e-12
1.636500335e-10
3.399121506e-09
5.669189693e-08
6.231277692e-07
1.806815648e-06
2.030581397e-29
2.403651429e-29
3.280706420e-29
5.073990374e-29
8.767339655e-29
1.674405245e-28
3.520293033e-28
8.211959093e-28
2.190093032e-27
7.229683681e-27
3.779809953e-26
7.178396817e-23
5.938648650e-16
1.076040106e-13
6.064121769e-12
1.793626691e-10
3.618951944e-09
5.901625310e-08
6.325196436e-07
1.808194857e-06
2.356014041e-29
2.780062526e-29
3.773552601e-29
5.795097195e-29
9.936123806e-29
1.883459602e-28
3.935063549e-28
9.144057725e-28
2.439827246e-27
8.131896500e-27
4.430084232e-26
2.102405919e-20
8.207580211e-16
1.310077401e-13
6.916112220e-12
1.962696546e-10
3.849408879e-09
6.140182514e-08
6.418892002e-07
1.809585255e-06
2.723624163e-29
3.204249336e-29
4.326667110e-29
6.600270542e-29
1.123434427e-28
2.114635230e-28
4.392519461e-28
1.017275815e-27
2.717274393e-27
9.154459771e-27
5.222762990e-26
1.399724339e-19
1.120401370e-15
1.587119417e-13
7.866777318e-12
2.144441783e-10
4.090953499e-09
6.385107425e-08
6.512455490e-07
1.810993227e-06
3.137744668e-29
3.681031438e-29
4.945979737e-29
7.497554005e-29
1.267410525e-28
2.369984196e-28
4.896724944e-28
1.130795575e-27
3.025715734e-27
1.031605032e-26
6.200116523e-26
4.494637362e-19
1.512213160e-15
1.913726028e-13
8.925432724e-12
2.339617172e-10
4.344061862e-09
6.636641091e-08
6.605980486e-07
1.812424303e-06
3.603063742e-29
4.215643430e-29
5.637930851e-29
8.495669040e-29
1.426857903e-28
2.651753778e-28
5.452150475e-28
1.256062715e-27
3.368869056e-27
1.163886200e-26
7.421653385e-26
1.090455955e-18
2.019856324e-15
2.297257113e-13
1.010201215e-11
2.549043735e-10
4.609208990e-09
6.894943720e-08
6.699556221e-07
1.813884145e-06
4.124664694e-29
4.813734035e-29
6.409465675e-29
9.604055423e-29
1.603200978e-28
2.962387800e-28
6.063692199e-28
1.394297410e-27
3.750948279e-27
1.314940689e-26
8.973498763e-26
2.273631281e-18
2.671971901e-15
2.745977486e-13
1.140727409e-11
2.773565533e-10
4.886920747e-09
7.160326560e-08
6.793239933e-07
1.815375694e-06
4.708025025e-29
5.481437571e-29
7.268113063e-29
1.083296078e-28
1.797990523e-28
3.304555345e-28
6.736758996e-28
1.546864683e-27
4.176790809e-27
1.487960467e-26
1.098473287e-25
4.304897691e-18
3.503067203e-15
3.269094825e-13
1.285272010e-11
3.014080808e-10
5.177735650e-09
7.432978296e-08
6.887094835e-07
1.816902551e-06
5.359096064e-29
6.225367530e-29
8.222047707e-29
1.219346739e-28
2.012916279e-28
3.681172274e-28
7.477285910e-28
1.715282428e-27
4.651912796e-27
1.686800579e-26
1.365700257e-25
7.617757459e-18
4.554414183e-15
3.876933468e-13
1.445075574e-11
3.271545830e-10
5.482194266e-09
7.713155923e-08
6.981208168e-07
1.818468344e-06
6.084311123e-29
7.052695552e-29
9.280079187e-29
1.369759671e-28
2.249806615e-28
4.095418186e-28
8.291836067e-28
1.901251480e-27
5.182640741e-27
1.916167316e-26
1.732171397e-25
1.281418723e-17
5.875115621e-15
4.580906854e-13
1.621455405e-11
3.546923757e-10
5.800895114e-09
8.001109080e-08
7.075616317e-07
1.820075108e-06
6.890600723e-29
7.971187246e-29
1.045175107e-28
1.535841780e-28
2.510653318e-28
4.550789265e-28
9.187612349e-28
2.106674391e-27
5.776260730e-27
2.181846123e-26
2.256008278e-25
2.071588784e-17
7.523439199e-15
5.393764692e-13
1.815836369e-11
3.841286029e-10
6.134417558e-09
8.297077483e-08
7.170385937e-07
1.821727431e-06
7.785492754e-29
8.989192031e-29
1.174743457e-28
1.719007548e-28
2.797633209e-28
5.051090909e-28
1.017262098e-27
2.333687115e-27
6.441177678e-27
2.491006307e-26
3.048012654e-25
3.242686868e-17
9.567961956e-15
6.329590687e-13
2.029733247e-11
4.155704492e-10
6.483420947e-09
8.601349371e-08
7.265556497e-07
1.823425430e-06
8.777117547e-29
1.011583220e-28
1.317833547e-28
1.920791875e-28
3.113109955e-28
5.600504214e-28
1.125569452e-27
2.584688114e-27
7.187131552e-27
2.852630173e-26
4.344519422e-25
4.941056312e-17
1.208922763e-14
7.403963170e-13
2.264773068e-11
4.491337559e-10
6.848523641e-09
8.914181382e-08
7.361192497e-07
1.825173289e-06
9.874251435e-29
1.136088626e-28
1.475658989e-28
2.142863668e-28
3.459656175e-28
6.203621935e-28
1.244659959e-27
2.862381604e-27
8.025474162e-27
3.278091152e-26
6.736737706e-25
7.358387597e-17
1.518147543e-14
8.634152158e-13
2.522693461e-11
4.849410003e-10
7.230457570e-09
9.235848833e-08
7.457323394e-07
1.826969408e-06
1.108642736e-28
1.273501188e-28
1.649534505e-28
2.387034406e-28
3.840083488e-28
6.865467505e-28
1.375621820e-27
3.169815200e-27
8.969414362e-27
3.781970107e-26
1.211517387e-24
1.074279381e-16
1.895426033e-14
1.003904817e-12
2.805345641e-11
5.231161843e-10
7.629900177e-09
9.566590983e-08
7.553975810e-07
1.828815270e-06
1.242393693e-28
1.424969975e-28
1.840891902e-28
2.655277507e-28
4.257460182e-28
7.591567124e-28
1.519659037e-27
3.510438067e-27
1.003445349e-26
4.383214601e-26
2.987141687e-24
1.541238992e-16
2.353470410e-14
1.163953632e-12
3.114705575e-11
5.637954184e-10
8.047599301e-09
9.906724460e-08
7.651192696e-07
1.830712030e-06
1.389788899e-28
1.591744892e-28
2.051272383e-28
2.949729792e-28
4.715148599e-28
8.388011545e-28
1.678110325e-27
3.888166276e-27
1.123889047e-26
5.106870099e-26
2.071496784e-23
2.177127491e-16
2.906958450e-14
1.345864774e-12
3.452897785e-11
6.071178050e-10
8.484326273e-09
1.025651402e-07
7.748992584e-07
1.832658638e-06
1.552037423e-28
1.775172012e-28
2.282362385e-28
3.272724279e-28
5.216795272e-28
9.261489307e-28
1.852470034e-27
4.307442079e-27
1.260434137e-26
5.986638557e-26
6.595716571e-21
3.032812499e-16
3.572826654e-14
1.552137428e-12
3.822166415e-11
6.532287634e-10
8.940860144e-09
1.061621015e-07
7.847385284e-07
1.834655603e-06
1.730447823e-28