/*--------------------------------*- C++ -*----------------------------------*\
| =========                 |                                                 |
| \\      /  F ield         | OpenFOAM: The Open Source CFD Toolbox           |
|  \\    /   O peration     | Version:  5.x                                   |
|   \\  /    A nd           | Web:      www.OpenFOAM.org                      |
|    \\/     M anipulation  |                                                 |
\*---------------------------------------------------------------------------*/
FoamFile
{
    version     2.0;
    format      ascii;
    class       volScalarField;
    location    "3.5";
    object       N2;
}
// * * * * * * * * * * * * * * * * * * * * * * * * * * * * * * * * * * * * * //

dimensions      [0 0 0 0 0 0 0];

internalField   nonuniform List<scalar>
51080
(
8.910087869e-03
9.352326393e-03
1.021629293e-02
1.154245809e-02
1.341262739e-02
1.594731584e-02
1.931171492e-02
2.372428775e-02
2.946618386e-02
3.688909486e-02
4.641755658e-02
5.854138229e-02
7.151341358e-02
8.821848846e-02
1.105879197e-01
1.391021291e-01
1.746665997e-01
2.188768785e-01
2.750622990e-01
3.496035714e-01
1.234429330e-02
1.295439340e-02
1.414456032e-02
1.596708037e-02
1.852872036e-02
2.198590897e-02
2.655133046e-02
3.250364587e-02
4.019742452e-02
5.006726785e-02
6.260644703e-02
7.608210366e-02
9.360954945e-02
1.173195462e-01
1.469357317e-01
1.833789247e-01
2.278058529e-01
2.810554525e-01
3.446508595e-01
4.186737475e-01
1.674002409e-02
1.756033674e-02
1.915754005e-02
2.159575932e-02
2.500800975e-02
2.958795615e-02
3.559715673e-02
4.337936227e-02
5.338721693e-02
6.624426754e-02
8.004052401e-02
9.776429741e-02
1.215661125e-01
1.508115862e-01
1.862228499e-01
2.287589478e-01
2.786564231e-01
3.358647625e-01
3.996665567e-01
4.679367542e-01
2.221568488e-02
2.329073288e-02
2.537891828e-02
2.855383605e-02
3.297094256e-02
3.885059851e-02
4.647484734e-02
5.617725519e-02
6.830602037e-02
8.311207515e-02
1.005909078e-01
1.240863190e-01
1.525428903e-01
1.863448960e-01
2.267598510e-01
2.734897773e-01
3.262614656e-01
3.841649024e-01
4.455146260e-01
5.077082666e-01
2.886224166e-02
3.023853526e-02
3.290579841e-02
3.694640100e-02
4.254031209e-02
4.994213916e-02
5.947908220e-02
7.155260270e-02
8.664736639e-02
1.027714297e-01
1.254991316e-01
1.527964903e-01
1.848626407e-01
2.231059488e-01
2.669755201e-01
3.161444938e-01
3.697801613e-01
4.264675677e-01
4.842170107e-01
5.405777177e-01
3.673027456e-02
3.845336349e-02
4.178536237e-02
4.681535324e-02
5.374632011e-02
6.286424457e-02
7.453277638e-02
8.919033475e-02
1.047937494e-01
1.261741645e-01
1.520445226e-01
1.823024120e-01
2.183902215e-01
2.596174680e-01
3.056749588e-01
3.558377193e-01
4.089205441e-01
4.632974496e-01
5.170068741e-01
5.679452419e-01
4.581837107e-02
4.792826268e-02
5.199877671e-02
5.812079633e-02
6.651354594e-02
7.748276870e-02
9.140813572e-02
1.062312903e-01
1.262706779e-01
1.505593801e-01
1.789778660e-01
2.129159437e-01
2.516408488e-01
2.948821573e-01
3.420239167e-01
3.920698166e-01
4.436600208e-01
4.951521530e-01
5.447673202e-01
5.907848653e-01
5.606777893e-02
5.859454623e-02
6.345711566e-02
7.074089948e-02
8.067087889e-02
9.355738119e-02
1.073465140e-01
1.258547050e-01
1.485402120e-01
1.751162837e-01
2.068999754e-01
2.432015782e-01
2.838031309e-01
3.281906794e-01
3.755267644e-01
4.246606890e-01
4.741885662e-01
5.225640535e-01
5.682485530e-01
6.098771004e-01
6.736312970e-02
7.032292493e-02
7.600393175e-02
8.447685077e-02
9.595778018e-02
1.083671012e-01
1.249903203e-01
1.458529128e-01
1.712068151e-01
2.006313846e-01
2.344827371e-01
2.725206695e-01
3.142992626e-01
3.591086349e-01
4.059676826e-01
4.536628656e-01
5.008309409e-01
5.460768179e-01
5.881088797e-01
6.258687377e-01
7.953861400e-02
8.292712009e-02
8.941946974e-02
9.906508552e-02
1.097579387e-01
1.243211744e-01
1.433873453e-01
1.667417549e-01
1.941340409e-01
2.256149087e-01
2.611421943e-01
3.003856152e-01
3.427585414e-01
3.874262898e-01
4.333356087e-01
4.792769551e-01
5.239774741e-01
5.662128245e-01
6.049206347e-01
6.392963529e-01
9.241648036e-02
9.615368468e-02
1.033771384e-01
1.118966196e-01
1.242426056e-01
1.413078282e-01
1.624884773e-01
1.876125918e-01
2.167375966e-01
2.497913018e-01
2.865356739e-01
3.265042281e-01
3.689977637e-01
4.131060839e-01
4.577560195e-01
5.017852858e-01
5.440355539e-01
5.834521651e-01
6.191744712e-01
6.506032847e-01
1.063947391e-01
1.096451780e-01
1.152445267e-01
1.252109413e-01
1.401932718e-01
1.588778758e-01
1.815240478e-01
2.081439362e-01
2.386690676e-01
2.728951336e-01
3.104425990e-01
3.507292621e-01
3.929739028e-01
4.362285202e-01
4.794354367e-01
5.215042907e-01
5.613989830e-01
5.982223927e-01
6.312860344e-01
6.601544815e-01
1.162586944e-01
1.200752626e-01
1.280109133e-01
1.402396539e-01
1.563059252e-01
1.762751043e-01
2.002140216e-01
2.280755690e-01
2.596912941e-01
2.947436891e-01
3.327431977e-01
3.730199877e-01
4.147402582e-01
4.569467238e-01
4.986200929e-01
5.387536803e-01
5.764311042e-01
6.108961701e-01
6.416043139e-01
6.682496170e-01
1.281724399e-01
1.330627829e-01
1.422073719e-01
1.552673418e-01
1.723098152e-01
1.933570242e-01
2.183752423e-01
2.472289000e-01
2.796538749e-01
3.152358579e-01
3.533990734e-01
3.934115499e-01
4.344112873e-01
4.754525721e-01
5.155679064e-01
5.538376570e-01
5.894573243e-01
6.217934397e-01
6.504204675e-01
6.751343163e-01
1.418720734e-01
1.469459363e-01
1.564673954e-01
1.701909874e-01
1.880536214e-01
2.099906771e-01
2.358777725e-01
2.654900312e-01
2.984749653e-01
3.343364075e-01
3.724323296e-01
4.119894505e-01
4.521364637e-01
4.919533060e-01
5.305311522e-01
5.670354878e-01
6.007631421e-01
6.311861684e-01
6.579765081e-01
6.810098887e-01
1.554104130e-01
1.606842154e-01
1.705903690e-01
1.848781047e-01
2.034194320e-01
2.260738181e-01
2.526348886e-01
2.827953973e-01
3.161246479e-01
3.520588875e-01
3.899065227e-01
4.288696115e-01
4.680813988e-01
5.066562446e-01
5.437462492e-01
5.785971284e-01
6.105958819e-01
6.393040824e-01
6.644732455e-01
6.860414147e-01
1.687572139e-01
1.742177716e-01
1.844685078e-01
1.992295489e-01
2.183209956e-01
2.415362782e-01
2.685961385e-01
2.991203025e-01
3.326111337e-01
3.684504954e-01
4.059112340e-01
4.441835880e-01
4.824151027e-01
5.197594762e-01
5.554289139e-01
5.887429890e-01
6.191677955e-01
6.463404394e-01
6.700771947e-01
6.903645242e-01
1.818666756e-01
1.874888709e-01
1.980304390e-01
2.131768827e-01
2.327005794e-01
2.563362160e-01
2.837402565e-01
3.144691563e-01
3.479693130e-01
3.835800645e-01
4.205502570e-01
4.580681324e-01
4.953019023e-01
5.314467032e-01
5.657722950e-01
5.976651311e-01
6.266599894e-01
6.524575851e-01
6.749264799e-01
6.940908873e-01
1.946954422e-01
2.004505396e-01
2.112268609e-01
2.266752273e-01
2.465238534e-01
2.704548280e-01
2.980684020e-01
3.288671399e-01
3.622516177e-01
3.975289166e-01
4.339333177e-01
4.706581603e-01
5.068964287e-01
5.418849668e-01
5.749473061e-01
6.055297852e-01
6.332266236e-01
6.577916643e-01
6.791359389e-01
6.973126686e-01
2.072084947e-01
2.130677599e-01
2.240247229e-01
2.396977395e-01
2.597747147e-01
2.838909563e-01
3.115982022e-01
3.423535679e-01
3.755210424e-01
4.103842018e-01
4.461700916e-01
4.820824564e-01
5.173412561e-01
5.512239769e-01
5.831037673e-01
6.124801040e-01
6.389984488e-01
6.624570489e-01
6.828011718e-01
7.001062788e-01
2.193800774e-01
2.253163805e-01
2.364037711e-01
2.522313240e-01
2.724507410e-01
2.966564684e-01
3.243585156e-01
3.549766243e-01
3.878460469e-01
4.222341478e-01
4.573666087e-01
4.924611747e-01
5.267657559e-01
5.595966148e-01
5.903722644e-01
6.186391115e-01
6.440865301e-01
6.665498614e-01
6.860019565e-01
7.025352173e-01
2.311930158e-01
2.371814751e-01
2.483537961e-01
2.642732322e-01
2.845596948e-01
3.087721857e-01
3.363856325e-01
3.667893382e-01
3.992967248e-01
4.331649671e-01
4.676228692e-01
5.019046068e-01
5.352860689e-01
5.671201264e-01
5.968662411e-01
6.241122298e-01
6.485851214e-01
6.701511145e-01
6.888052020e-01
7.046524830e-01
2.426374591e-01
2.486557178e-01
2.598723529e-01
2.758284448e-01
2.961163841e-01
3.202649558e-01
3.477200373e-01
3.778466639e-01
4.099422632e-01
4.432588154e-01
4.770316339e-01
5.105128136e-01
5.430057483e-01
5.738972596e-01
6.026839614e-01
6.289898753e-01
6.525743105e-01
6.733291199e-01
6.912670136e-01
7.065024323e-01
2.537094317e-01
2.597377300e-01
2.709629258e-01
2.869075239e-01
3.071404558e-01
3.311652815e-01
3.584041378e-01
3.882032931e-01
4.198492405e-01
4.525926478e-01
4.856779277e-01
5.183758813e-01
5.500164546e-01
5.800180349e-01
6.079104543e-01
6.333495975e-01
6.561222770e-01
6.761417338e-01
6.934347204e-01
7.081223832e-01
2.644096970e-01
2.704307099e-01
2.816333515e-01
2.975248717e-01
3.176546622e-01
3.415054951e-01
3.684807149e-01
3.979124934e-01
4.290806119e-01
4.612376323e-01
4.936388882e-01
5.255743265e-01
5.563992096e-01
5.855609775e-01
6.126192808e-01
6.372578740e-01
6.592871449e-01
6.786380016e-01
6.953483613e-01
7.095438453e-01
2.747426074e-01
2.807413361e-01
2.918946190e-01
3.076974818e-01
3.276834464e-01
3.513186004e-01
3.779916409e-01
4.070249528e-01
4.376950264e-01
4.692589045e-01
5.009841919e-01
5.321798841e-01
5.622252906e-01
5.905945477e-01
6.168740392e-01
6.407718563e-01
6.621185442e-01
6.808596799e-01
6.970418147e-01
7.107934740e-01
2.847151948e-01
2.906787758e-01
3.017598048e-01
3.174439371e-01
3.372520158e-01
3.606371337e-01
3.869772313e-01
4.155883851e-01
4.457467132e-01
4.767157733e-01
5.077763645e-01
5.382562280e-01
5.675574541e-01
5.951785268e-01
6.207297948e-01
6.439406872e-01
6.646589835e-01
6.828423688e-01
6.985439866e-01
7.118939214e-01
2.943365320e-01
3.002540559e-01
3.112434540e-01
3.267835999e-01
3.463855710e-01
3.694927990e-01
3.954757511e-01
4.236471590e-01
4.532853365e-01
4.836618602e-01
5.140712857e-01
5.438597636e-01
5.724506549e-01
5.993649274e-01
6.242342405e-01
6.468067669e-01
6.669449906e-01
6.846165163e-01
6.998795479e-01
7.128645671e-01
3.036170372e-01
3.094792985e-01
3.203608620e-01
3.357360561e-01
3.551088870e-01
3.779158834e-01
4.035230547e-01
4.312423403e-01
4.603561690e-01
4.901454747e-01
5.199188745e-01
5.490403608e-01
5.769533005e-01
6.031991423e-01
6.274287292e-01
6.494066715e-01
6.690079370e-01
6.862082924e-01
7.010696143e-01
7.137219693e-01
3.125680136e-01
3.183674037e-01
3.291277289e-01
3.443207936e-01
3.634458428e-01
3.859351547e-01
4.111525776e-01
4.384115934e-01
4.670003653e-01
4.962100909e-01
5.253636241e-01
5.538421356e-01
5.811078548e-01
6.067208557e-01
6.303492691e-01
6.517720222e-01
6.708748837e-01
6.876401850e-01
7.021323390e-01
7.144803458e-01
3.212013745e-01
3.269316305e-01
3.375597273e-01
3.525568299e-01
3.714193785e-01
3.935775488e-01
4.183953106e-01
4.451894098e-01
4.732551277e-01
5.018946454e-01
5.304450393e-01
5.583040714e-01
5.849515287e-01
6.099646687e-01
6.330270360e-01
6.539302663e-01
6.725691953e-01
6.889315299e-01
7.030833363e-01
7.151519496e-01
3.295292928e-01
3.351853092e-01
3.456724338e-01
3.604625463e-01
3.790511730e-01
4.008682877e-01
4.252797663e-01
4.516072206e-01
4.791541171e-01
5.072340520e-01
5.351983388e-01
5.624606097e-01
5.885171294e-01
6.129608842e-01
6.354893446e-01
6.559052067e-01
6.741111674e-01
6.900991407e-01
7.039361052e-01
7.157473511e-01
3.375640239e-01
3.431417567e-01
3.534809430e-01
3.680555495e-01
3.863617153e-01
4.078308314e-01
4.318322306e-01
4.576936364e-01
4.847276437e-01
5.122596102e-01
5.396548429e-01
5.663422431e-01
5.918334811e-01
6.157360581e-01
6.377599239e-01
6.577175954e-01
6.755183734e-01
6.911575691e-01
7.047023721e-01
7.162757133e-01
3.453176515e-01
3.508140199e-01
3.609999445e-01
3.753526807e-01
3.933702170e-01
4.144868851e-01
4.380767513e-01
4.634747138e-01
4.900030494e-01
5.169992601e-01
5.438423753e-01
5.699759126e-01
5.949259996e-01
6.183134821e-01
6.398595762e-01
6.593855023e-01
6.768061418e-01
6.921194144e-01
7.053922958e-01
7.167450786e-01
3.528021197e-01
3.582147387e-01
3.682434884e-01
3.823698049e-01
4.000947207e-01
4.208566013e-01
4.440353745e-01
4.689739873e-01
4.950050116e-01
5.214780724e-01
5.477857426e-01
5.733854856e-01
5.978170722e-01
6.207135823e-01
6.418065333e-01
6.609246829e-01
6.779877988e-01
6.929956829e-01
7.060146823e-01
7.171623164e-01
3.600290662e-01
3.653562583e-01
3.752250885e-01
3.891220035e-01
4.065520167e-01
4.269585311e-01
4.497282736e-01
4.742129147e-01
4.997556880e-01
5.257184584e-01
5.515069879e-01
5.765921473e-01
6.005264938e-01
6.229544189e-01
6.436167359e-01
6.623489955e-01
6.790750027e-01
6.937959842e-01
7.065772467e-01
7.175333500e-01
3.670096939e-01
3.722503968e-01
3.819575991e-01
3.956234367e-01
4.127577482e-01
4.328098297e-01
4.551739164e-01
4.792109430e-01
5.042751431e-01
5.297405641e-01
5.550258160e-01
5.796146989e-01
6.030717312e-01
6.250518374e-01
6.453042723e-01
6.636705995e-01
6.800780448e-01
6.945287740e-01
7.070868453e-01
7.178637385e-01
3.737549214e-01
3.789084852e-01
3.884531827e-01
4.018874168e-01
4.187265038e-01
4.384262860e-01
4.603891143e-01
4.839857221e-01
5.085813923e-01
5.335623701e-01
5.583598447e-01
5.824698632e-01
6.054682822e-01
6.270198729e-01
6.468815207e-01
6.649001639e-01
6.810058850e-01
6.952014177e-01
7.075493774e-01
7.181581259e-01
3.802751359e-01
3.853413520e-01
3.947234540e-01
4.079265059e-01
4.244718317e-01
4.438224733e-01
4.653893481e-01
4.885532558e-01
5.126907382e-01
5.372000933e-01
5.615246976e-01
5.851724744e-01
6.077299118e-01
6.288709138e-01
6.483593986e-01
6.660470466e-01
6.818663630e-01
6.958203808e-01
7.079700073e-01
7.184204620e-01
3.865802855e-01
3.915593624e-01
4.007793456e-01
4.137524068e-01
4.300063550e-01
4.490118027e-01
4.701887001e-01
4.929281249e-01
5.166179461e-01
5.406683087e-01
5.645345449e-01
5.877358142e-01
6.098688336e-01
6.306159590e-01
6.497475505e-01
6.671195427e-01
6.826664856e-01
6.963913544e-01
7.083532705e-01
7.186543292e-01
3.926799923e-01
3.975723327e-01
4.066312252e-01
4.193761349e-01
4.353417754e-01
4.540067017e-01
4.748001169e-01
4.971235692e-01
5.203762650e-01
5.439800863e-01
5.674018944e-01
5.901717456e-01
6.118959280e-01
6.322647522e-01
6.510545112e-01
6.681249738e-01
6.834123578e-01
6.969193324e-01
7.087031656e-01
7.188627284e-01
3.985833168e-01
4.033896297e-01
4.122888446e-01
4.248080488e-01
4.404890174e-01
4.588185778e-01
4.792354334e-01
5.011516884e-01
5.239778317e-01
5.471472659e-01
5.701381053e-01
5.924908430e-01
6.138209013e-01
6.338260079e-01
6.522879503e-01
6.690698862e-01
6.841094443e-01
6.974088705e-01
7.090234372e-01
7.190488791e-01
4.042989314e-01
4.090201259e-01
4.177614748e-01
4.300577641e-01
4.454581969e-01
4.634580016e-01
4.835055244e-01
5.050234870e-01
5.274335742e-01
5.501805112e-01
5.727533698e-01
5.947025926e-01
6.156523824e-01
6.353073811e-01
6.534545324e-01
6.699599823e-01
6.847625477e-01
6.978638872e-01
7.093172511e-01
7.192152873e-01
4.098351239e-01
4.144722162e-01
4.230577711e-01
4.351344109e-01
4.502587684e-01
4.679347346e-01
4.876203835e-01
5.087490158e-01
5.307534337e-01
5.530894912e-01
5.752567735e-01
5.968155265e-01
6.173981428e-01
6.367158389e-01
6.545602679e-01
6.708003979e-01
6.853759187e-01
6.982878111e-01
7.095872375e-01
7.193637926e-01
4.151997032e-01
4.197539389e-01
4.281859930e-01
4.400464231e-01
4.548995197e-01
4.722578157e-01
4.915891813e-01
5.123374829e-01
5.339464704e-01
5.558828712e-01
5.776566691e-01
5.988372982e-01
6.190650875e-01
6.380575109e-01
6.556105418e-01
6.715956726e-01
6.859533395e-01
6.986837335e-01
7.098358975e-01
7.194964102e-01
4.204001427e-01
4.248727921e-01
4.331538677e-01
4.448018372e-01
4.593886665e-01
4.764356244e-01
4.954203739e-01
5.157972805e-01
5.370209297e-01
5.585686648e-01
5.799604654e-01
6.007747740e-01
6.206594705e-01
6.393378878e-01
6.566100717e-01
6.723498256e-01
6.864981805e-01
6.990544096e-01
7.100654735e-01
7.196148795e-01
4.254435301e-01
4.298359986e-01
4.379687244e-01
4.494080909e-01
4.637338152e-01
4.804759026e-01
4.991217479e-01
5.191361385e-01
5.399843019e-01
5.611539995e-01
5.821749394e-01
6.026342095e-01
6.221869084e-01
6.405619478e-01
6.575632095e-01
6.730665615e-01
6.870134967e-01
6.994023167e-01
7.102778713e-01
7.197208270e-01
4.303365712e-01
4.346503084e-01
4.426374137e-01
4.538722269e-01
4.679421117e-01
4.843858480e-01
5.027005151e-01
5.223611671e-01
5.428435206e-01
5.636454737e-01
5.843062314e-01
6.044212164e-01
6.236524582e-01
6.417341328e-01
6.584737497e-01
6.737490792e-01
6.875019125e-01
6.997296058e-01
7.104748925e-01
7.198155522e-01
4.350856543e-01
4.393221503e-01
4.471665091e-01
4.582008421e-01
4.720202457e-01
4.881721808e-01
5.061633066e-01
5.254788995e-01
5.456048250e-01
5.660490394e-01
5.863599094e-01
6.061408935e-01
6.250606589e-01
6.428584456e-01
6.593451598e-01
6.744002700e-01
6.879658699e-01
7.000381999e-01
7.106580085e-01
7.199002069e-01
4.396968186e-01
4.438576466e-01
4.515621066e-01
4.624001384e-01
4.759744477e-01
4.918411228e-01
5.095163064e-01
5.284952960e-01
5.482740402e-01
5.683702061e-01
5.883410485e-01
6.077978520e-01
6.264156512e-01
6.439385318e-01
6.601805589e-01
6.750228304e-01
6.884075794e-01
7.003300033e-01
7.108287374e-01
7.199759617e-01
4.441758626e-01
4.482625492e-01
4.558300308e-01
4.664759407e-01
4.798105359e-01
4.953984692e-01
5.127652364e-01
5.314159393e-01
5.508564711e-01
5.706139122e-01
5.902542472e-01
6.093962789e-01
6.277211811e-01
6.449776388e-01
6.609827379e-01
6.756190658e-01
6.888289554e-01
7.006065458e-01
7.109884832e-01
7.200443149e-01
4.485281937e-01
4.525423050e-01
4.599757493e-01
4.704337418e-01
4.835340381e-01
4.988496602e-01
5.159153861e-01
5.342459678e-01
5.533569969e-01
5.727847900e-01
5.921037705e-01
6.109399978e-01
6.289806272e-01
6.459786988e-01
6.617541810e-01
6.761910815e-01
6.892317143e-01
7.008691639e-01
7.111381133e-01
7.201054612e-01
4.527589977e-01
4.567021430e-01
4.640044799e-01
4.742787182e-01
4.871500062e-01
5.021997094e-01
5.189716661e-01
5.369901141e-01
5.557801210e-01
5.748870201e-01
5.938934088e-01
6.124324799e-01
6.301970388e-01
6.469443940e-01
6.624971826e-01
6.767407261e-01
6.896173954e-01
7.011191144e-01
7.112786015e-01
7.201602325e-01
4.568732381e-01
4.607469210e-01
4.679211010e-01
4.780157506e-01
4.906633271e-01
5.054534002e-01
5.219386816e-01
5.396527728e-01
5.581299829e-01
5.769244432e-01
5.956267626e-01
6.138769205e-01
6.313732361e-01
6.478771164e-01
6.632137993e-01
6.772698013e-01
6.899874159e-01
7.013574995e-01
7.114108854e-01
7.202094552e-01
4.608755180e-01
4.646813571e-01
4.717302620e-01
4.816494286e-01
4.940785170e-01
5.086150917e-01
5.248207010e-01
5.422380486e-01
5.604104316e-01
5.789006525e-01
5.973070264e-01
6.152762083e-01
6.325117946e-01
6.487791345e-01
6.639059186e-01
6.777798038e-01
6.903430378e-01
7.015854016e-01
7.115358114e-01
7.202537709e-01
4.647703330e-01
4.685098599e-01
4.754363369e-01
4.851840960e-01
4.973998144e-01
5.116889629e-01
5.276217382e-01
5.447496772e-01
5.626250422e-01
5.808189425e-01
5.989372313e-01
6.166330072e-01
6.336150264e-01
6.496524118e-01
6.645752291e-01
6.782721776e-01
6.906854407e-01
7.018036999e-01
7.116541107e-01
7.202937522e-01
4.685618738e-01
4.722366035e-01
4.790435135e-01
4.886238648e-01
5.006312653e-01
5.146789551e-01
5.303454916e-01
5.471912622e-01
5.647771358e-01
5.826823202e-01
6.005201161e-01
6.179497838e-01
6.346850991e-01
6.504988074e-01
6.652232508e-01
6.787482005e-01
6.910156608e-01
7.020132699e-01
7.117664165e-01
7.203298834e-01
4.722541571e-01
4.758656025e-01
4.825557172e-01
4.919725955e-01
5.037766024e-01
5.175886154e-01
5.329954704e-01
5.495660819e-01
5.668697357e-01
5.844936371e-01
6.020581902e-01
6.192287710e-01
6.357239579e-01
6.513199903e-01
6.658514738e-01
6.792090383e-01
6.913346207e-01
7.022148371e-01
7.118733088e-01
7.203626445e-01
4.758510064e-01
4.794006419e-01
4.859767033e-01
4.952339604e-01
5.068394466e-01
5.204214609e-01
5.355749646e-01
5.518771924e-01
5.689057027e-01
5.862554908e-01
6.035538406e-01
6.204720324e-01
6.367334033e-01
6.521175005e-01
6.664611002e-01
6.796557257e-01
6.916431939e-01
7.024090938e-01
7.119753520e-01
7.203924140e-01
4.793560505e-01
4.828453362e-01
4.893100262e-01
4.984114394e-01
5.098231283e-01
5.231807154e-01
5.380870184e-01
5.541274978e-01
5.708877359e-01
5.879702656e-01
6.050091982e-01
6.216815207e-01
6.377150917e-01
6.528927781e-01
6.670533518e-01
6.800892746e-01
6.919421657e-01
7.025966644e-01
7.120730175e-01
7.204195857e-01
4.827727151e-01
4.862030745e-01
4.925590382e-01
5.015083030e-01
5.127308369e-01
5.258693930e-01
5.405345317e-01
5.563196623e-01
5.728182793e-01
5.896402685e-01
6.064262986e-01
6.228589826e-01
6.386705542e-01
6.536470652e-01
6.676292916e-01
6.805105209e-01
6.922322409e-01
7.027780748e-01
7.121667213e-01
7.204444870e-01
4.861043168e-01
4.894771503e-01
4.957269430e-01
5.045276955e-01
5.155656184e-01
5.284904084e-01
5.429201884e-01
5.584562421e-01
5.746996488e-01
5.912675769e-01
6.078070312e-01
6.240060422e-01
6.396011710e-01
6.543815830e-01
6.681899031e-01
6.809202876e-01
6.925140413e-01
7.029538541e-01
7.122568488e-01
7.204673886e-01
4.893539846e-01
4.926706401e-01
4.988168106e-01
5.074725823e-01
5.183302760e-01
5.310464343e-01
5.452466011e-01
5.605396032e-01
5.765340752e-01
5.928541245e-01
6.091530828e-01
6.251242254e-01
6.405082941e-01
6.550974250e-01
6.687361102e-01
6.813192964e-01
6.927881682e-01
7.031244478e-01
7.123437683e-01
7.204885945e-01
4.925246908e-01
4.957865179e-01
5.018315240e-01
5.103457570e-01
5.210275132e-01
5.335400541e-01
5.475160912e-01
5.625719428e-01
5.783235258e-01
5.944017679e-01
6.104660812e-01
6.262149401e-01
6.413930750e-01
6.557955742e-01
6.692687373e-01
6.817082560e-01
6.930551477e-01
7.032902784e-01
7.124278109e-01
7.205083236e-01
4.956193044e-01
4.988275766e-01
5.047737956e-01
5.131498575e-01
5.236598849e-01
5.359736761e-01
5.497309647e-01
5.645553982e-01
5.800699082e-01
5.959122003e-01
6.117475720e-01
6.272795013e-01
6.422566676e-01
6.564769843e-01
6.697885494e-01
6.820877398e-01
6.933154670e-01
7.034517422e-01
7.125092639e-01
7.205267930e-01
4.986405000e-01
5.017965286e-01
5.076463071e-01
5.158874835e-01
5.262298584e-01
5.383496124e-01
5.518934048e-01
5.664918850e-01
5.817750692e-01
5.973870247e-01
6.129989441e-01
6.283190940e-01
6.431000733e-01
6.571425297e-01
6.702962518e-01
6.824583462e-01
6.935696006e-01
7.036091633e-01
7.125883645e-01
7.205442110e-01
5.015909150e-01
5.046958923e-01
5.104515109e-01
5.185610056e-01
5.287396987e-01
5.406700292e-01
5.540053762e-01
5.683833276e-01
5.834406192e-01
5.988277704e-01
6.142215041e-01
6.293349172e-01
6.439242863e-01
6.577929952e-01
6.707925101e-01
6.828205978e-01
6.938179239e-01
7.037628450e-01
7.126653684e-01
7.205607429e-01
5.044729710e-01
5.075281338e-01
5.131918192e-01
5.211727101e-01
5.311916312e-01
5.429369807e-01
5.560688294e-01
5.702314292e-01
5.850682084e-01
6.002357781e-01
6.154164672e-01
6.303279494e-01
6.447301699e-01
6.584291458e-01
6.712778857e-01
6.831749576e-01
6.940608517e-01
7.039131365e-01
7.127404915e-01
7.205765709e-01
5.072890671e-01
5.102955775e-01
5.158694983e-01
5.237248462e-01
5.335876862e-01
5.451524501e-01
5.580855525e-01
5.720378757e-01
5.866592614e-01
6.016124487e-01
6.165850346e-01
6.312992573e-01
6.455186009e-01
6.590516469e-01
6.717529993e-01
6.835218770e-01
6.942986898e-01
7.040602407e-01
7.128139191e-01
7.205918243e-01
5.100414677e-01
5.130004287e-01
5.184866863e-01
5.262194197e-01
5.359298746e-01
5.473182716e-01
5.600572741e-01
5.738041997e-01
5.882152740e-01
6.029589862e-01
6.177282425e-01
6.322497035e-01
6.462903023e-01
6.596611240e-01
6.722183177e-01
6.838617768e-01
6.945317880e-01
7.042043962e-01
7.128858619e-01
7.206066197e-01
5.127322597e-01
5.156448483e-01
5.210455060e-01
5.286584496e-01
5.382200560e-01
5.494362116e-01
5.619856203e-01
5.755319595e-01
5.897374925e-01
6.042765885e-01
6.188471821e-01
6.331802011e-01
6.470460392e-01
6.602582237e-01
6.726743629e-01
6.841950264e-01
6.947604211e-01
7.043458767e-01
7.129564498e-01
7.206210956e-01
5.153635663e-01
5.182308477e-01
5.235478878e-01
5.310438434e-01
5.404601016e-01
5.515079416e-01
5.638721501e-01
5.772224751e-01
5.912272334e-01
6.055663138e-01
6.199427155e-01
6.340915561e-01
6.477864981e-01
6.608434418e-01
6.731215270e-01
6.845219731e-01
6.949848481e-01
7.044848361e-01
7.130258520e-01
7.206353465e-01
5.179373545e-01
5.207603574e-01
5.259956874e-01
5.333774169e-01
5.426516018e-01
5.535350955e-01
5.657183528e-01
5.788771510e-01
5.926856575e-01
6.068292766e-01
6.210158282e-01
6.349845339e-01
6.485122942e-01
6.614173454e-01
6.735602868e-01
6.848429339e-01
6.952053360e-01
7.046214938e-01
7.130941695e-01
7.206494620e-01
5.204554564e-01
5.232352174e-01
5.283907652e-01
5.356608629e-01
5.447962961e-01
5.555191553e-01
5.675255741e-01
5.804972053e-01
5.941139041e-01
6.080664306e-01
6.220673230e-01
6.358598376e-01
6.492240332e-01
6.619804103e-01
6.739909850e-01
6.851582323e-01
6.954221078e-01
7.047559724e-01
7.131615494e-01
7.206635287e-01
5.229197300e-01
5.256572444e-01
5.307348450e-01
5.378958583e-01
5.468957261e-01
5.574615598e-01
5.692951764e-01
5.820838722e-01
5.955130458e-01
6.092786880e-01
6.230980158e-01
6.367181540e-01
6.499222711e-01
6.625330945e-01
6.744140186e-01
6.854681322e-01
6.956353680e-01
7.048884683e-01
7.132281065e-01
7.206776303e-01
5.253318988e-01
5.280281305e-01
5.330295642e-01
5.400839883e-01
5.489513196e-01
5.593637574e-01
5.710284540e-01
5.836382595e-01
5.968840807e-01
6.104669662e-01
6.241086721e-01
6.375601387e-01
6.506075360e-01
6.630758047e-01
6.748296719e-01
6.857728958e-01
6.958453059e-01
7.050191059e-01
7.132939207e-01
7.206918463e-01
5.276935854e-01
5.303494851e-01
5.352764726e-01
5.422267237e-01
5.509645589e-01
5.612270236e-01
5.727265648e-01
5.851614984e-01
5.982279867e-01
6.116321087e-01
6.251000166e-01
6.383863783e-01
6.512803338e-01
6.636089584e-01
6.752383214e-01
6.860727617e-01
6.960521288e-01
7.051480202e-01
7.133591069e-01
7.207062137e-01
5.300064245e-01
5.326229255e-01
5.374771276e-01
5.443255467e-01
5.529367759e-01
5.630526031e-01
5.743906923e-01
5.866545614e-01
5.995456755e-01
6.127749085e-01
6.260727048e-01
6.391974592e-01
6.519411206e-01
6.641329030e-01
6.756402153e-01
6.863679681e-01
6.962559767e-01
7.052753077e-01
7.134237343e-01
7.207208142e-01
5.322719137e-01
5.348498305e-01
5.396329245e-01
5.463818474e-01
5.548692859e-01
5.648417557e-01
5.760219097e-01
5.881185023e-01
6.008380234e-01
6.138960902e-01
6.270274017e-01
6.399938869e-01
6.525903539e-01
6.646480362e-01
6.760356477e-01
6.866586958e-01
6.964570232e-01
7.054011278e-01
7.134878742e-01
7.207356638e-01
5.344914873e-01
5.370317697e-01
5.417453131e-01
5.483969017e-01
5.567633162e-01
5.665955971e-01
5.776212984e-01
5.895542502e-01
6.021058649e-01
6.149964149e-01
6.279647350e-01
6.407762074e-01
6.532284520e-01
6.651546557e-01
6.764248710e-01
6.869451897e-01
6.966553926e-01
7.055255332e-01
7.135516022e-01
7.207508168e-01
5.366665801e-01
5.391700268e-01
5.438156128e-01
5.503720209e-01
5.586200786e-01
5.683152164e-01
5.791898542e-01
5.909626572e-01
6.033499837e-01
6.160765382e-01
6.288852504e-01
6.415448785e-01
6.538557909e-01
6.656531096e-01
6.768081390e-01
6.872275863e-01
6.968512327e-01
7.056486554e-01
7.136149843e-01
7.207663140e-01
5.387985546e-01
5.412659806e-01
5.458450751e-01
5.523084402e-01
5.604407191e-01
5.700017129e-01
5.807285309e-01
5.923446505e-01
6.045711131e-01
6.171371249e-01
6.297895125e-01
6.423003769e-01
6.544727185e-01
6.661436558e-01
6.771856698e-01
6.875060643e-01
6.970446602e-01
7.057705522e-01
7.136780566e-01
7.207821769e-01
5.408886671e-01
5.433208780e-01
5.478349328e-01
5.542072654e-01
5.622262955e-01
5.716560823e-01
5.822382147e-01
5.937010050e-01
6.057700099e-01
6.181788033e-01
6.306780483e-01
6.430431413e-01
6.550796433e-01
6.666265825e-01
6.775576967e-01
6.877808026e-01
6.972357735e-01
7.058913112e-01
7.137408799e-01
7.207984736e-01
5.429381566e-01
5.453359051e-01
5.497863889e-01
5.560696555e-01
5.639778972e-01
5.732792616e-01
5.837198409e-01
5.950324954e-01
6.069473534e-01
6.192021370e-01
6.315513347e-01
6.437735653e-01
6.556768613e-01
6.671021581e-01
6.779243845e-01
6.880519390e-01
6.974247306e-01
7.060110026e-01
7.138035138e-01
7.208151898e-01
5.449482202e-01
5.473122948e-01
5.517005242e-01
5.578966903e-01
5.656965122e-01
5.748722128e-01
5.851742204e-01
5.963398903e-01
6.081037703e-01
6.202077269e-01
6.324099114e-01
6.444920301e-01
6.562647223e-01
6.675706605e-01
6.782859513e-01
6.883196183e-01
6.976115807e-01
7.061297140e-01
7.138659954e-01
7.208323994e-01
5.469200178e-01
5.492511310e-01
5.535784795e-01
5.596893942e-01
5.673831021e-01
5.764358130e-01
5.866021601e-01
5.976239265e-01
6.092399268e-01
6.211960912e-01
6.332541704e-01
6.451989508e-01
6.568434834e-01
6.680322786e-01
6.786425760e-01
6.885839701e-01
6.977964588e-01
7.062474875e-01
7.139283472e-01
7.208500692e-01
5.488546491e-01
5.511534892e-01
5.554212762e-01
5.614487529e-01
5.690386211e-01
5.779709134e-01
5.880044611e-01
5.988852471e-01
6.103563996e-01
6.221677475e-01
6.340845729e-01
6.458946659e-01
6.574134729e-01
6.684872508e-01
6.789944222e-01
6.888451185e-01
6.979794062e-01
7.063643880e-01
7.139906340e-01
7.208682760e-01
5.507531762e-01
5.530204424e-01
5.572299278e-01
5.631757295e-01
5.706639375e-01
5.794783321e-01
5.893818052e-01
6.001245469e-01
6.114537716e-01
6.231231782e-01
6.349015236e-01
6.465795040e-01
6.579749486e-01
6.689357957e-01
6.793416587e-01
6.891031913e-01
6.981605343e-01
7.064804593e-01
7.140528826e-01
7.208869973e-01
5.526166045e-01
5.548529625e-01
5.590053713e-01
5.648712432e-01
5.722599540e-01
5.809588855e-01
5.907349586e-01
6.013424576e-01
6.125326065e-01
6.240628865e-01
6.357054114e-01
6.472538114e-01
6.585281491e-01
6.693781218e-01
6.796844208e-01
6.893582837e-01
6.983399287e-01
7.065957732e-01
7.141150992e-01
7.209062388e-01
5.544459224e-01
5.566520608e-01
5.607485771e-01
5.665361797e-01
5.738274369e-01
5.824133071e-01
5.920645771e-01
6.025395900e-01
6.135934087e-01
6.249872949e-01
6.364966441e-01
6.479178667e-01
6.590733332e-01
6.698144178e-01
6.800228852e-01
6.896105203e-01
6.985176258e-01
7.067103491e-01
7.141773211e-01
7.209260356e-01
5.562421001e-01
5.584185886e-01
5.624604141e-01
5.681713735e-01
5.753671698e-01
5.838423284e-01
5.933713405e-01
6.037164837e-01
6.146367192e-01
6.258968301e-01
6.372755265e-01
6.485719777e-01
6.596107483e-01
6.702448626e-01
6.803571430e-01
6.898599760e-01
6.986937315e-01
7.068242431e-01
7.142395814e-01
7.209463662e-01
5.580060135e-01