/*--------------------------------*- C++ -*----------------------------------*\
| =========                 |                                                 |
| \\      /  F ield         | OpenFOAM: The Open Source CFD Toolbox           |
|  \\    /   O peration     | Version:  5.x                                   |
|   \\  /    A nd           | Web:      www.OpenFOAM.org                      |
|    \\/     M anipulation  |                                                 |
\*---------------------------------------------------------------------------*/
FoamFile
{
    version     2.0;
    format      ascii;
    class       volScalarField;
    location    "3.5";
    object       nC3H7;
}
// * * * * * * * * * * * * * * * * * * * * * * * * * * * * * * * * * * * * * //

dimensions      [0 0 0 0 0 0 0];

internalField   nonuniform List<scalar>
51080
(
0.000000000e+00
0.000000000e+00
0.000000000e+00
0.000000000e+00
0.000000000e+00
0.000000000e+00
0.000000000e+00
0.000000000e+00
0.000000000e+00
0.000000000e+00
1.383987113e-10
1.680063906e-10
2.042925365e-10
2.583158109e-10
3.454077846e-10
4.863981942e-10
7.221339532e-10
1.137963546e-09
1.921682439e-09
3.215038769e-09
0.000000000e+00
0.000000000e+00
0.000000000e+00
0.000000000e+00
0.000000000e+00
0.000000000e+00
0.000000000e+00
0.000000000e+00
1.231289765e-10
1.450945062e-10
1.763946449e-10
2.150036613e-10
2.733703010e-10
3.693212778e-10
5.230974124e-10
7.784131299e-10
1.220131608e-09
1.988116517e-09
3.100728709e-09
3.286752493e-09
0.000000000e+00
0.000000000e+00
0.000000000e+00
0.000000000e+00
0.000000000e+00
0.000000000e+00
0.000000000e+00
1.287912885e-10
1.514977573e-10
1.842725172e-10
2.246990912e-10
2.852250353e-10
3.841241218e-10
5.397348982e-10
7.921040263e-10
1.216528550e-09
1.925427751e-09
2.933203261e-09
3.427937705e-09
2.396549844e-09
0.000000000e+00
0.000000000e+00
0.000000000e+00
0.000000000e+00
0.000000000e+00
1.185058206e-10
1.346274822e-10
1.570816411e-10
1.884740313e-10
2.323526140e-10
2.931072979e-10
3.922041632e-10
5.450799068e-10
7.856503914e-10
1.182162203e-09
1.825233255e-09
2.748294906e-09
3.429126183e-09
2.851121635e-09
1.519394792e-09
0.000000000e+00
0.000000000e+00
0.000000000e+00
0.000000000e+00
1.255320976e-10
1.416154284e-10
1.642448392e-10
1.962324024e-10
2.420379392e-10
2.992108432e-10
3.959195926e-10
5.425362933e-10
7.677986644e-10
1.132408097e-09
1.711315079e-09
2.552363988e-09
3.339769653e-09
3.159886456e-09
2.033605108e-09
8.727936704e-10
0.000000000e+00
1.168422798e-10
1.235687430e-10
1.341852338e-10
1.497634785e-10
1.720331782e-10
2.037109755e-10
2.490836644e-10
3.052171716e-10
3.967698702e-10
5.347834030e-10
7.429432603e-10
1.074649220e-09
1.592445445e-09
2.351973907e-09
3.181995296e-09
3.344922910e-09
2.488887085e-09
1.324005123e-09
4.500913709e-10
1.317546706e-10
1.362975906e-10
1.453525509e-10
1.597152560e-10
1.809334395e-10
2.115237186e-10
2.554749770e-10
3.094125150e-10
3.953815704e-10
5.234466770e-10
7.138165145e-10
1.012812114e-09
1.472861455e-09
2.151712679e-09
2.974663688e-09
3.408767254e-09
2.875644582e-09
1.790172812e-09
8.004075910e-10
1.986475975e-10
1.545342325e-10
1.605689228e-10
1.726339538e-10
1.918633381e-10
2.204540013e-10
2.619984991e-10
3.127041099e-10
3.920056158e-10
5.097495885e-10
6.823933079e-10
9.496375786e-10
1.355499917e-09
1.955793106e-09
2.735954015e-09
3.354953355e-09
3.172333389e-09
2.251817966e-09
1.211425456e-09
4.463384439e-10
6.600714322e-11
1.825241130e-10
1.904415859e-10
2.063165803e-10
2.317298438e-10
2.697265216e-10
3.159145351e-10
3.869173865e-10
4.930267260e-10
6.523325993e-10
8.881867406e-10
1.243200946e-09
1.768314318e-09
2.482643917e-09
3.198116684e-09
3.351541211e-09
2.681975559e-09
1.665364706e-09
7.783684132e-10
2.231739484e-10
1.028969380e-11
2.164300399e-10
2.266565057e-10
2.472324977e-10
2.803174863e-10
3.208373626e-10
3.830437355e-10
4.783025561e-10
6.200578782e-10
8.286838040e-10
1.137589847e-09
1.592610923e-09
2.229166321e-09
2.965185710e-09
3.391458743e-09
3.043446287e-09
2.138792204e-09
1.183237517e-09
4.734663668e-10
9.361726470e-11
9.887296602e-22
2.569655961e-10
2.697522959e-10
2.958159544e-10
3.290118504e-10
3.821034415e-10
4.662737814e-10
5.908390565e-10
7.728002734e-10
1.039925623e-09
1.431037020e-09
1.986627309e-09
2.688893896e-09
3.290487487e-09
3.291690054e-09
2.597595499e-09
1.644174356e-09
8.129423700e-10
2.689755022e-10
2.760726721e-11
1.232355104e-25
3.070291165e-10
3.197060350e-10
3.424939311e-10
3.861164536e-10
4.597804994e-10
5.670596305e-10
7.237707566e-10
9.525067764e-10
1.285803982e-09
1.762859149e-09
2.399278509e-09
3.074573630e-09
3.387085288e-09
2.994480283e-09
2.134319635e-09
1.232192165e-09
5.402628091e-10
1.386705951e-10
2.445821433e-12
1.089517031e-27
3.465624095e-10
3.629099014e-10
3.988226379e-10
4.596135087e-10
5.506054972e-10
6.837578267e-10
8.776279522e-10
1.159063480e-09
1.563166454e-09
2.119528404e-09
2.788575056e-09
3.315860880e-09
3.272648115e-09
2.612393723e-09
1.712395940e-09
9.051472061e-10
3.457389026e-10
6.111726077e-11
6.255599374e-23
2.849480761e-29
3.994099801e-10
4.228938861e-10
4.697651140e-10
5.439038176e-10
6.548072598e-10
8.170709710e-10
1.052423955e-09
1.390771069e-09
1.864914009e-09
2.478479627e-09
3.104568330e-09
3.381843285e-09
3.021082971e-09
2.220709013e-09
1.352448006e-09
6.530617146e-10
2.109854963e-10
1.983165359e-11
1.410292888e-25
1.306615858e-30
4.678076626e-10
4.954424566e-10
5.508848691e-10
6.396728711e-10
7.727325338e-10
9.670963122e-10
1.247261336e-09
1.643875275e-09
2.179221533e-09
2.809570266e-09
3.306156888e-09
3.293896437e-09
2.706402081e-09
1.857809618e-09
1.056311814e-09
4.626773986e-10
1.206533804e-10
2.533874430e-12
3.101697108e-27
8.455127614e-32
5.443300035e-10
5.768096997e-10
6.421445134e-10
7.471183686e-10
9.044110013e-10
1.133331333e-09
1.460103619e-09
1.912163038e-09
2.489544132e-09
3.081221833e-09
3.378175390e-09
3.101591058e-09
2.379098484e-09
1.538895369e-09
8.179045722e-10
3.212011455e-10
6.263969276e-11
1.057223083e-21
1.576400059e-28
6.879868198e-33
6.294595231e-10
6.673577752e-10
7.436467189e-10
8.662340624e-10
1.049516802e-09
1.314607824e-09
1.687591897e-09
2.186789150e-09
2.776055328e-09
3.268782883e-09
3.334580235e-09
2.854001316e-09
2.067251505e-09
1.266895602e-09
6.285986884e-10
2.176243261e-10
2.768044718e-11
1.642869608e-24
1.295782147e-29
6.579279979e-34
7.234786872e-10
7.672791053e-10
8.554114667e-10
9.968068505e-10
1.207335328e-09
1.509016963e-09
1.924924186e-09
2.456536251e-09
3.019091484e-09
3.362143044e-09
3.205890293e-09
2.587035891e-09
1.783930018e-09
1.038970449e-09
4.796708105e-10
1.429823211e-10
8.808745459e-12
4.878858033e-26
1.469422249e-30
7.100192586e-35
8.265142080e-10
8.766172660e-10
9.773073700e-10
1.138379017e-09
1.376716301e-09
1.713838186e-09
2.165857731e-09
2.708702130e-09
3.202993808e-09
3.367320885e-09
3.024456489e-09
2.322962090e-09
1.533508066e-09
8.499902490e-10
3.632970592e-10
9.019204211e-11
9.368724734e-13
3.476310157e-27
2.105669790e-31
8.442087753e-36
9.385482561e-10
9.952623452e-10
1.109014737e-09
1.290206588e-09
1.556021152e-09
1.925496382e-09
2.402913859e-09
2.930769490e-09
3.319497375e-09
3.301167422e-09
2.816456958e-09
2.073961678e-09
1.315758543e-09
6.942827220e-10
2.728542116e-10
5.375317230e-11
1.820890187e-21
4.011096746e-28
3.612972803e-32
1.091467098e-36
1.059410629e-09
1.122934524e-09
1.249995959e-09
1.451220216e-09
1.743080863e-09
2.139585567e-09
2.627838747e-09
3.112311466e-09
3.369131537e-09
3.184048267e-09
2.600162694e-09
1.845737023e-09
1.128254596e-09
5.664487708e-10
2.029118684e-10
2.943995409e-11
8.131567556e-24
6.378866275e-29
7.166715718e-33
1.525741585e-37
1.188764061e-09
1.259161799e-09
1.399461981e-09
1.619985827e-09
1.935171952e-09
2.350980157e-09
2.832356212e-09
3.246370814e-09
3.359557309e-09
3.034632611e-09
2.387129532e-09
1.640140935e-09
9.676941724e-10
4.616925166e-10
1.490991521e-10
1.403029379e-11
4.239675545e-25
1.282546898e-29
1.604908774e-33
2.306120844e-38
1.326080210e-09
1.403253401e-09
1.556343516e-09
1.794674510e-09
2.129029666e-09
2.554068588e-09
3.009226223e-09
3.330620281e-09
3.302326877e-09
2.867680609e-09
2.184052794e-09
1.456884411e-09
8.306022517e-10
3.759122465e-10
1.079379577e-10
5.094589327e-12
4.715945304e-26
3.091973507e-30
3.991109147e-34
3.788258476e-39
1.470616287e-09
1.554274169e-09
1.719260973e-09
1.973049831e-09
2.320911035e-09
2.743116102e-09
3.152792786e-09
3.367180257e-09
3.209799640e-09
2.693831785e-09
1.994390337e-09
1.294572839e-09
7.136767010e-10
3.056747384e-10
7.667861920e-11
8.602564300e-13
7.946629948e-27
8.626790144e-31
1.089298849e-34
6.826881153e-40
1.621387566e-09
1.711016866e-09
1.886504487e-09
2.152474735e-09
2.506724175e-09
2.912819784e-09
3.259729618e-09
3.361471288e-09
3.093155717e-09
2.520265262e-09
1.819556033e-09
1.151321860e-09
6.139387715e-10
2.481457210e-10
5.315612766e-11
5.673796999e-19
1.764407764e-27
2.716730739e-31
3.234809614e-35
1.365469319e-40
1.777146334e-09
1.871984295e-09
2.056028674e-09
2.329958008e-09
2.682228660e-09
3.058701881e-09
3.329326336e-09
3.320688974e-09
2.961539143e-09
2.351550473e-09
1.659727129e-09
1.025102683e-09
5.287816620e-10
2.010034320e-10
3.566943962e-11
1.638296941e-22
4.792690532e-28
9.480264264e-32
1.038341034e-35
3.063721343e-41
1.936365550e-09
2.035378676e-09
2.225466535e-09
2.502241449e-09
2.843328830e-09
3.177406368e-09
3.363250551e-09
3.252439062e-09
2.821945418e-09
2.190405349e-09
1.514372003e-09
9.139293588e-10
4.559649277e-10
1.623547496e-10
2.288391348e-11
9.351483074e-24
1.521556044e-28
3.614608005e-32
3.583723328e-36
7.761149069e-42
2.097236455e-09
2.199112132e-09
2.392174836e-09
2.665932305e-09
2.986430819e-09
3.267083765e-09
3.364950696e-09
3.163817256e-09
2.679476523e-09
2.038286224e-09
1.382584080e-09
8.159558641e-10
3.935854734e-10
1.306601446e-10
1.375434837e-11
1.289957382e-24
5.474827667e-29
1.489258115e-32
1.324131618e-36
2.221354868e-42
2.257680413e-09
2.360836837e-09
2.553312328e-09
2.817702935e-09
3.108514392e-09
3.327462091e-09
3.338925936e-09
3.060935033e-09
2.537710439e-09
1.895817268e-09
1.263284149e-09
7.295148361e-10
3.400369464e-10
1.046683502e-10
7.465375603e-12
2.710165705e-25
2.184046494e-29
6.571849956e-33
5.217619107e-37
7.152149265e-43
2.415390316e-09
2.518006004e-09
2.705953293e-09
2.954566712e-09
3.207457847e-09
3.359691559e-09
3.290049985e-09
2.948780019e-09
2.399062342e-09
1.763087169e-09
1.155347208e-09
6.531279267e-10
2.939690950e-10
8.336232112e-11
3.387295978e-12
7.387255431e-26
9.501813612e-30
3.083410770e-33
2.185029034e-37
2.570767115e-43
2.567890243e-09
2.667963584e-09
2.847271499e-09
3.073902023e-09
3.282187018e-09
3.366029689e-09
3.223068504e-09
2.831265973e-09
2.265092566e-09
1.639854048e-09
1.057671761e-09
5.855001208e-10
2.542497166e-10
6.591452354e-11
1.045470780e-12
2.416422678e-26
4.451155339e-30
1.528720844e-33
9.694079707e-38
1.022266276e-43
2.712633596e-09
2.808076684e-09
2.974722793e-09
3.173691787e-09
3.332685734e-09
3.349450456e-09
3.142291579e-09
2.711374537e-09
2.136745123e-09
1.525682851e-09
9.692192604e-10
5.255049917e-10
2.199299720e-10
5.165081203e-11
8.680968979e-14
9.066526553e-27
2.222620947e-30
7.966969289e-34
4.542497589e-38
4.455385987e-44
2.847149898e-09
2.935939992e-09
3.086062662e-09
3.252678235e-09
3.359887029e-09
3.313271070e-09
3.051445200e-09
2.591320658e-09
2.014531803e-09
1.420033469e-09
8.890331835e-10
4.721674954e-10
1.902142193e-10
4.002066638e-11
4.179196953e-20
3.789550710e-27
1.173320867e-30
4.344429539e-34
2.241508359e-38
2.109283047e-44
2.969192427e-09
3.049367431e-09
3.179562787e-09
3.310411681e-09
3.365471492e-09
3.260846516e-09
2.953640815e-09
2.472710869e-09
1.898663074e-09
1.322321731e-09
8.162454237e-10
4.246460609e-10
1.644349611e-10
3.057380122e-11
5.157804977e-22
1.728956582e-27
6.504047577e-31
2.468839903e-34
1.161411798e-38
1.075793102e-44
3.076742704e-09
3.146568711e-09
3.254124153e-09
3.347219606e-09
3.351629450e-09
3.195355496e-09
2.851407222e-09
2.356682263e-09
1.789145904e-09
1.231955382e-09
7.500766818e-10
3.822150087e-10
1.420309215e-10
2.294121165e-11
5.843271522e-23
8.483190207e-28
3.764433147e-31
1.456877255e-34
6.301185247e-39
5.867863256e-45
3.168196988e-09
3.226279586e-09
3.309318053e-09
3.364097602e-09
3.320827055e-09
3.119675396e-09
2.746757375e-09
2.244011338e-09
1.685853583e-09
1.148355758e-09
6.898305527e-10
3.442489353e-10
1.225294910e-10
1.681983174e-11
1.236826815e-23
4.425759796e-28
2.264003937e-31
8.898776193e-35
3.569922698e-39
3.400577090e-45
3.242465592e-09
3.287824357e-09
3.345365191e-09
3.362556453e-09
3.275606161e-09
3.036322283e-09
2.641265719e-09
2.135206133e-09
1.588571749e-09
1.070972962e-09
6.348886632e-10
3.102086893e-10
1.055316817e-10
1.196056733e-11
3.587023341e-24
2.433335019e-28
1.409026623e-31
5.609608449e-35
2.105985582e-39
2.080646108e-45
3.299020804e-09
3.331121848e-09
3.363057759e-09
3.344451328e-09
3.218434310e-09
2.947441038e-09
2.536144607e-09
2.030574419e-09
1.497035679e-09
9.992926727e-10
5.847029367e-10
2.796287318e-10
9.070015701e-11
8.158653382e-12
1.265908689e-24
1.399922570e-28
9.042291310e-32
3.639887361e-35
1.290200626e-39
1.336876181e-45
3.337892385e-09
3.356641426e-09
3.363640117e-09
3.311816997e-09
3.151606062e-09
2.854823958e-09
2.432311566e-09
1.930276412e-09
1.410951997e-09
9.328373026e-10
5.387882006e-10
2.521068165e-10
7.774838550e-11
5.246159130e-12
5.123088309e-25
8.378478193e-29
5.964962604e-32
2.425261284e-35
8.187398603e-40
8.978759604e-46
3.359617206e-09
3.365315571e-09
3.348674381e-09
3.266733283e-09
3.077187131e-09
2.759944208e-09
2.330448947e-09
1.834365763e-09
1.330015957e-09
8.711693492e-10
4.967151284e-10
2.272943550e-10
6.643270615e-11
3.086130067e-12
2.296743540e-25
5.191425305e-29
4.033950000e-32
1.655753406e-35
5.368328027e-40
6.276175175e-46
3.365153781e-09
3.358428887e-09
3.319907448e-09
3.211219474e-09
2.996991974e-09
2.663995816e-09
2.231052571e-09
1.742818259e-09
1.253922260e-09
8.138885318e-10
4.581043934e-10
2.048891216e-10
5.654521573e-11
1.568081189e-12
1.115532446e-25
3.316717920e-29
2.790024407e-32
1.155935612e-35
3.628378010e-40
4.548818180e-46
3.355775176e-09
3.337499366e-09
3.279155682e-09
3.147163718e-09
2.912583021e-09
2.567935635e-09
2.134472387e-09
1.655556256e-09
1.182370731e-09
7.606301569e-10
4.226195903e-10
1.846281162e-10
4.790796671e-11
6.036951217e-13
5.780547866e-26
2.177353738e-29
1.969273242e-32
8.236525482e-36
2.521506170e-40
3.404583168e-46
3.332960623e-09
3.304168623e-09
3.228211419e-09
3.076284117e-09
2.825285160e-09
2.472520258e-09
2.040943172e-09
1.572464844e-09
1.115074604e-09
7.110627652e-10
3.899631246e-10
1.662822841e-10
4.036833921e-11
1.172758209e-13
3.160420505e-26
1.464451137e-29
1.415819103e-32
5.979950976e-36
1.797703342e-40
2.622845757e-46
3.298291815e-09
3.260107609e-09
3.168780182e-09
3.000106375e-09
2.736207099e-09
2.378340283e-09
1.950612127e-09
1.493404386e-09
1.051758917e-09
6.648861010e-10
3.598710092e-10
1.496514137e-10
3.379491093e-11
4.752000034e-16
1.807813285e-26
1.006574874e-29
1.035123872e-32
4.417101410e-36
1.312350513e-40
2.074788199e-46
3.253370899e-09
3.206944714e-09
3.102435495e-09
2.919964644e-09
2.646265776e-09
2.285850769e-09
1.863558048e-09
1.418219683e-09
9.921646914e-10
6.218279102e-10
3.321081665e-10
1.345601464e-10
2.807426590e-11
1.619699399e-20
1.074890743e-26
7.054844200e-30
7.684353324e-33
3.314751795e-36
9.790521598e-41
1.680709426e-46
3.199753639e-09
3.146217249e-09
3.030598357e-09
2.837005746e-09
2.556212102e-09
2.195394683e-09
1.779807177e-09
1.346747357e-09
9.360487561e-10
5.816403569e-10
3.064658337e-10
1.208546373e-10
2.310830659e-11
1.134015791e-21
6.608748827e-27
5.032309876e-30
5.784515348e-33
2.523896107e-36
7.450513421e-41
1.390818028e-46
3.138905312e-09
3.079337341e-09
2.954527841e-09
2.752205986e-09
2.466654673e-09
2.107225303e-09
1.699347230e-09
1.278820164e-09
8.831840893e-10
5.441002280e-10
2.827576835e-10
1.083991616e-10
1.881174211e-11
2.205486525e-22
4.183850150e-27
3.647136151e-30
4.410041520e-33
1.947498308e-36
5.773529399e-41
1.173164666e-46
3.072172981e-09
3.007578463e-09
2.875324061e-09
2.666386102e-09
2.378081040e-09
2.021523615e-09
1.622135535e-09
1.214270958e-09
8.333588805e-10
5.090038180e-10
2.608173610e-10
9.707402555e-11
1.511056875e-11
6.436703143e-23
2.717870746e-27
2.681619809e-30
3.401451326e-33
1.521233767e-36
4.548844801e-41
1.006774054e-46
3.000770309e-09
2.932068903e-09
2.793934890e-09
2.580230031e-09
2.290876866e-09
1.938411380e-09
1.548108624e-09
1.152934311e-09
7.863757431e-10
4.761665522e-10
2.404957503e-10
8.677343250e-11
1.194025751e-11
2.349579633e-23
1.806372186e-27
1.997723434e-30
2.651586539e-33
1.201717103e-36
3.638755735e-41
8.773965654e-47
2.925774464e-09
2.853794633e-09
2.711169932e-09
2.494302574e-09
2.205343425e-09
1.857963681e-09
1.477186196e-09
1.094650462e-09
7.420518619e-10
4.454207389e-10
2.216592158e-10
7.740325711e-11
9.244598219e-12
9.906404763e-24
1.225291576e-27
1.506098448e-30
2.087189407e-33
9.590859973e-37
2.950845357e-41
7.754850651e-47
2.848127975e-09
2.773608668e-09
2.627713355e-09
2.409065176e-09
2.121711863e-09
1.780219169e-09
1.409277574e-09
1.039263505e-09
7.002175977e-10
4.166139004e-10
2.041876231e-10
6.887997362e-11
6.974493295e-12
4.624750330e-24
8.464719411e-28
1.147884484e-30
1.657596933e-33
7.726403547e-37
2.422574975e-41
6.934772746e-47
2.768648113e-09
2.692241334e-09
2.544137897e-09
2.324891712e-09
2.040154439e-09
1.705186337e-09
1.344285059e-09
9.866247059e-10
6.607152471e-10
3.896064316e-10
1.879729646e-10
6.112896941e-11
5.087339590e-12
2.330804935e-24
5.944914719e-28
8.836378501e-31
1.327264102e-33
6.278637940e-37
2.011754276e-41
6.271909819e-47
2.688034991e-09
2.610310837e-09
2.460919368e-09
2.242080281e-09
1.960796776e-09
1.632851436e-09
1.282106019e-09
9.365914433e-10
6.233991817e-10
3.642717755e-10
1.729175152e-10
5.408368592e-11
3.546148807e-12
1.247386302e-24
4.237970837e-28
6.864741134e-31
1.070792778e-33
5.143016039e-37
1.688130029e-41
5.729789085e-47
2.606883427e-09
2.528338687e-09
2.378449399e-09
2.160867216e-09
1.883723217e-09
1.563181942e-09
1.222635799e-09
8.890280004e-10
5.881340830e-10
3.404939620e-10
1.589329369e-10
4.768431766e-11
2.319096348e-12
7.008295525e-25
3.062384145e-28
5.377999624e-31
8.698867047e-34
4.243698943e-37
1.429987094e-41
5.281005892e-47
2.525696082e-09
2.446758331e-09
2.297047032e-09
2.081434447e-09
1.808987818e-09
1.496133230e-09
1.165768504e-09
8.438053125e-10
5.547943540e-10
3.181667566e-10
1.459394107e-10
4.187720301e-11
1.379018091e-12
4.099588878e-25
2.240381308e-28
4.245945228e-31
7.111914041e-34
3.525171951e-37
1.221699701e-41
4.905779676e-47
2.444892296e-09
2.365928864e-09
2.216969861e-09
2.003920507e-09
1.736617981e-09
1.431648258e-09
1.111399314e-09
8.008016741e-10
5.232635005e-10
2.971930598e-10
1.338642053e-10
3.661396573e-11
7.026782412e-13
2.481318655e-25
1.657642091e-28
3.376140575e-31
5.848669589e-34
2.946339928e-37
1.051865036e-41
4.589129779e-47
2.364819834e-09
2.286144544e-09
2.138421474e-09
1.928425908e-09
1.666619379e-09
1.369663343e-09
1.059424794e-09
7.599002689e-10
4.934331597e-10
2.774835064e-10
1.226410567e-10
3.185095420e-11
2.689043962e-13
1.546484681e-25
1.239241990e-28
2.702209440e-31
4.835903682e-34
2.476478543e-37
9.120136346e-42
4.319589399e-47
2.285764508e-09
2.207642907e-09
2.061561314e-09
1.855021054e-09
1.598982610e-09
1.310109898e-09
1.009743617e-09
7.209928996e-10
4.652035009e-10
2.589561789e-10
1.122099820e-10
2.754868395e-11
5.220508357e-14
9.887213268e-26
9.353083539e-29
2.175979893e-31
4.018468364e-34
2.092324992e-37
7.957923349e-42
4.088203188e-47
2.207957970e-09
2.130613980e-09
1.986511752e-09
1.783750990e-09
1.533682508e-09
1.252913823e-09
9.622576005e-10
6.839754656e-10
4.384806474e-10
2.415355795e-10
1.025156601e-10
2.367136439e-11
3.853342673e-16
6.464343745e-26
7.121373755e-29
1.762104005e-31
3.354620018e-34
1.776164845e-37
6.983922759e-42
3.887983862e-47
2.131586764e-09
2.055207331e-09
1.913362007e-09
1.714638808e-09
1.470684869e-09
1.198000574e-09
9.168707138e-10
6.487510868e-10
4.131778488e-10
2.251521030e-10
9.350793073e-11
2.018651471e-11
5.220510456e-20
4.311194737e-26
5.466319773e-29
1.434400234e-31
2.812354189e-34
1.514344693e-37
6.161068939e-42
3.713305910e-47
2.056798183e-09
1.981538577e-09
1.842176671e-09
1.647691704e-09
1.409946739e-09
1.145293302e-09
8.734913695e-10
6.152272913e-10
3.892142012e-10
2.097416211e-10
8.514050666e-11
1.706456740e-11
3.789606602e-21
2.926661896e-26
4.227501241e-29
1.173303147e-31
2.367026654e-34
1.296274175e-37
5.460795873e-42
3.559713505e-47
1.983704882e-09
1.909692577e-09
1.772995943e-09
1.582901999e-09
1.351418842e-09
1.094714873e-09
8.320304606e-10
5.833178255e-10
3.665144452e-10
1.952449034e-10
7.737105789e-11
1.427869083e-11
7.784778321e-22
2.018720268e-26
3.292273514e-29
9.640495781e-32
1.999457401e-34
1.113668575e-37
4.860714237e-42
3.423576013e-47
1.912392878e-09
1.839731442e-09
1.705843194e-09
1.520250056e-09
1.295046625e-09
1.046188779e-09
7.924029147e-10
5.529405288e-10
3.450080174e-10
1.816067390e-10
7.016054338e-11
1.180435359e-11
2.396448395e-22
1.412694205e-26
2.580600029e-29
7.954306024e-32
1.694648274e-34
9.599914063e-38
4.343197378e-42
3.301892303e-47
1.842923628e-09
1.771694978e-09
1.640726034e-09
1.459709015e-09
1.240773505e-09
9.996389825e-10
7.545269910e-10
5.240186910e-10
3.246296106e-10
1.687765532e-10
6.347293894e-11
9.619271187e-12
9.181390634e-23
1.001657889e-26
2.034990949e-29
6.588657635e-32
1.440770438e-34
8.300603484e-38
3.894176150e-42
3.192257999e-47
1.775337965e-09
1.705607355e-09
1.577639413e-09
1.401243415e-09
1.188539404e-09
9.549911287e-10
7.183247917e-10
4.964791504e-10
3.053176670e-10
1.567068322e-10
5.727512527e-11
7.703079134e-12
4.040831710e-23
7.187756565e-27
1.613783168e-29
5.477305808e-32
1.228459988e-34
7.197353175e-38
3.502433062e-42
3.092653686e-47
1.709661185e-09
1.641476900e-09
1.516567990e-09
1.344811947e-09
1.138282433e-09
9.121724904e-10
6.837209275e-10
4.702535552e-10
2.870150074e-10
1.453539004e-10
5.153641478e-11
6.037352186e-12
1.958711342e-23
5.214831576e-27
1.286493303e-29
4.568844527e-32
1.050225830e-34
6.256773193e-38
3.158866506e-42
3.001379492e-47
1.645903054e-09
1.579301088e-09
1.457488292e-09
1.290369340e-09
1.089940583e-09
8.711116645e-10
6.506443497e-10
4.452769930e-10
2.696679048e-10
1.346768143e-10
4.622839741e-11
4.605394095e-12
1.019991950e-23
3.821897483e-27
1.030643650e-29
3.823146164e-32
9.000693736e-35
5.451881335e-38
2.856151424e-42
2.917070706e-47
1.584063249e-09
1.519067463e-09
1.400369719e-09
1.237868112e-09
1.043451845e-09
8.317398798e-10
6.190269422e-10
4.214886287e-10
2.532260327e-10
1.246375738e-10
4.132468196e-11
3.392174837e-12
5.615348091e-24
2.827319289e-27
8.294852119e-30
3.208632807e-32
7.731486599e-35
4.760743188e-38
2.588230610e-42
2.838488597e-47
1.524130112e-09
1.460755301e-09
1.345177071e-09
1.187256187e-09
9.987537666e-10
7.939897719e-10
5.888036721e-10
3.988304281e-10
2.376425470e-10
1.152007201e-10
3.680085318e-11
2.384279870e-12
3.232572390e-24
2.109732866e-27
6.704825379e-30
2.700363857e-32
6.655313295e-35
4.165346891e-38
2.350117773e-42
2.764664456e-47
1.466085193e-09
1.404337537e-09
1.291870679e-09
1.138481614e-09
9.557847041e-10
7.577969916e-10
5.599127629e-10
3.772482688e-10
2.228728856e-10
1.063330540e-10
3.263412313e-11
1.569855219e-12
1.930647536e-24
1.586959364e-27
5.441653196e-30
2.278495178e-32
5.740198293e-35
3.650905043e-38
2.137708281e-42
2.694787485e-47
1.409903757e-09
1.349781747e-09
1.240406673e-09
1.091491034e-09
9.144848206e-10
7.230990537e-10
5.322949211e-10
3.566903506e-10
2.088756686e-10
9.800363335e-11
2.880329808e-11
9.384096396e-13
1.189334570e-24
1.202696069e-27
4.433386573e-30
1.927227402e-32
4.959931504e-35
3.205216400e-38
1.947559592e-42
2.628141252e-47
1.355555060e-09
1.297051684e-09
1.190740523e-09
1.046229845e-09
8.747935248e-10
6.898359366e-10
5.058939521e-10
3.371083585e-10
1.956120299e-10
9.018351859e-11
2.528865648e-11
4.803248852e-13
7.523372614e-25
9.178616994e-28
3.624969230e-30
1.633827111e-32
4.292982887e-35
2.818085222e-38
1.776803101e-42
2.564131323e-47
1.303003980e-09
1.246107937e-09
1.142825277e-09
1.002644399e-09
8.366537871e-10
6.579490645e-10
4.806560787e-10
3.184559297e-10
1.830450294e-10
8.284547574e-11
2.207177826e-11
1.852633732e-13
4.869756467e-25
7.050766318e-28
2.974053271e-30
1.388064371e-32
3.721504520e-35
2.481052279e-38
1.623023829e-42
2.502241627e-47
1.252213712e-09
1.196908346e-09
1.096611902e-09
9.606812170e-10
8.000084389e-10
6.273831831e-10
4.565307441e-10
3.006899543e-10
1.711402295e-10
7.596417522e-11
1.913543919e-11
3.726992116e-14
3.216342508e-25
5.449426376e-28
2.447856436e-30
1.181642522e-32
3.230794746e-35
2.186977227e-38
1.484157220e-42
2.442054052e-47
1.203143425e-09
1.149408913e-09
1.052051889e-09
9.202862395e-10
7.648022302e-10
5.980849816e-10
4.334691625e-10
2.837690048e-10
1.598651841e-10
6.951555166e-11
1.646354756e-11
4.536178934e-16
2.162663927e-25
4.236060271e-28
2.020882186e-30
1.007827674e-32
2.808544438e-35
1.929873493e-38
1.358434534e-42
2.383195860e-47
1.155751025e-09
1.103565138e-09
1.009096347e-09
8.814074248e-10
7.309817638e-10
5.700024727e-10
4.114248943e-10
2.676542560e-10
1.491889738e-10
6.347720082e-11
1.404120529e-11
1.027059644e-19
1.477611952e-25
3.310694784e-28
1.673177158e-30
8.611076267e-33
2.444531629e-35
1.704695571e-38
1.244372596e-42
2.325362106e-47
1.109993538e-09
1.059330535e-09
9.676959576e-10
8.439933234e-10
6.984951976e-10
5.430865938e-10
3.903540324e-10
2.523085756e-10
1.390829144e-10
5.782796253e-11
1.185427372e-11
7.130943182e-21
1.024214577e-25
2.600689112e-28
1.389066823e-30
7.369775343e-33
2.130142308e-35
1.507126277e-38
1.140680877e-42
2.268349322e-47
1.065826218e-09
1.016659133e-09
9.278019771e-10
8.079932198e-10
6.672925730e-10
5.172904997e-10
3.702146082e-10
2.376971040e-10
1.295194627e-10
5.254793013e-11
9.889741682e-12
1.470292628e-21
7.192689957e-26
2.052788831e-28
1.156170060e-30
6.317397094e-33
1.858161332e-35
1.333509255e-38
1.046247162e-42
2.211925706e-47
1.023204597e-09
9.755052028e-10
8.893661973e-10
7.733577556e-10
6.373249898e-10
4.925682470e-10
3.509666267e-10
2.237865547e-10
1.204727967e-10
4.761837153e-11
8.135388217e-12
4.587360557e-22
5.111621877e-26
1.627692375e-28
9.646793326e-31
5.423340629e-33
1.622509851e-35
1.180750901e-38
9.601009563e-43
2.155970097e-47
9.820835987e-10
9.358220704e-10
8.523410974e-10
7.400392715e-10
6.085460769e-10
4.688767265e-10
3.325720837e-10
2.105456122e-10
1.119187180e-10
4.302156275e-11
6.579896974e-12
1.785534573e-22
3.672495032e-26
1.296179357e-28
8.067731625e-31
4.662340333e-33
1.418032914e-35
1.046144528e-38
8.814130831e-43
2.100377287e-47
9.424189214e-10
8.975643247e-10
8.166801746e-10
7.079905768e-10
5.809106053e-10
4.461744562e-10
3.149945044e-10
1.979443321e-10
1.038338954e-10
3.874076465e-11
5.212772339e-12
7.984145762e-23
2.665119182e-26
1.036399523e-28
6.762038890e-31
4.013426672e-33
1.240362662e-35
9.274082123e-39
8.094471760e-43
2.045060215e-47
9.041654497e-10
8.606867657e-10
7.823374426e-10
6.771664674e-10
5.543746844e-10
4.244213609e-10
2.981994720e-10
1.859542947e-10
9.619654030e-11
3.476026834e-11
4.024337562e-12
3.929328989e-23
1.952067877e-26
8.318852714e-29
5.679536507e-31
3.459117308e-33
1.085798322e-35
8.225571278e-39
7.435440292e-43
1.989955752e-47
8.672793392e-10
8.251450082e-10
7.492685531e-10
6.475233333e-10
5.288970102e-10
4.035796180e-10
2.821539796e-10
1.745486100e-10
8.898589502e-11
3.106511583e-11
3.005788692e-12
2.075296316e-23
1.442130267e-26
6.701849214e-29
4.779864949e-31
2.984892671e-33
9.511718410e-36
7.298757568e-39
6.831420868e-43
1.935000405e-47
8.317178525e-10
7.908954130e-10
7.174300082e-10
6.190180572e-10
5.044371877e-10
3.836125035e-10
2.668267070e-10
1.637017231e-10
8.218231057e-11
2.764118749e-11
2.149135551e-12
1.157437494e-23
1.073938451e-26
5.417990180e-29
4.030354912e-31
2.578523934e-33
8.337863544e-36
6.478832418e-39
6.277248996e-43
1.880172640e-47
7.974380736e-10
7.578957860e-10
6.867793471e-10
5.916095590e-10
4.809561379e-10
3.644852569e-10
2.521875555e-10
1.533892286e-10
7.576720139e-11
2.447511990e-11
1.447198010e-12
6.742303998e-24
8.057296495e-27
4.394622919e-29
3.404533665e-31
2.229820914e-33
7.313259853e-36
5.752809853e-39
5.768469322e-43
1.825457403e-47
7.643981751e-10
7.261038270e-10
6.572751353e-10
5.652581609e-10
4.584167236e-10
3.461644295e-10
2.382079838e-10
1.435879747e-10
6.972282892e-11
2.155427161e-11
8.935200443e-13
4.070223038e-24
6.087302323e-27
3.575842663e-29
2.880853079e-31
1.930182112e-33
6.418137454e-36
5.109510363e-39
5.301003975e-43
1.770865959e-47
7.325577582e-10
6.954796507e-10
6.288776786e-10
5.399252948e-10
4.367831731e-10
3.286178381e-10
2.248607730e-10
1.342759852e-10
6.403229220e-11
1.886665469e-11
4.819683757e-13
2.531713930e-24
4.629055502e-27
2.918371467e-29
2.441738528e-31
1.672360349e-33
5.635383183e-36
4.539128788e-39
4.871267449e-43
1.716426026e-47
7.018766149e-10
6.659831753e-10
6.015482696e-10
5.155738707e-10
4.160211308e-10
3.118150305e-10
2.121198455e-10
1.254322606e-10
5.867969919e-11
1.640093271e-11
2.056513348e-13
1.615446062e-24
3.541790759e-27
2.388654052e-29
2.072811086e-31
1.450260308e-33
4.950374504e-36
4.033167353e-39
4.476069546e-43
1.662199617e-47
6.723161346e-10
6.375763481e-10
5.752491255e-10
4.921678610e-10
3.960972766e-10
2.957265949e-10
1.999603298e-10
1.170368405e-10
5.364986620e-11
1.414638381e-11
5.373750344e-14
1.053802263e-24
2.725589376e-27
1.960462654e-29
1.762271663e-31
1.258698931e-33
4.350435351e-36
3.584064883e-39
4.112491774e-43
1.608226370e-47
6.438389639e-10
6.102212559e-10
5.499442388e-10
4.696730041e-10
3.769798059e-10
2.803243820e-10
1.883586549e-10
1.090705805e-10
4.892824995e-11
1.209284269e-11
2.911313063e-15
7.008485296e-25
2.108938832e-27
1.613242166e-29
1.500397052e-31
1.093296411e-33
3.824648466e-36
3.185289120e-39
3.777920011e-43
1.554564640e-47
6.164079168e-10
5.838826090e-10
5.255981395e-10
4.480559821e-10
3.586387084e-10
2.655816076e-10
1.772920507e-10
1.015154592e-10
4.450110154e-11
1.023070228e-11
5.455932428e-19
4.741596004e-25
1.640208609e-27
1.330861575e-29
1.279189175e-31
9.503367750e-34
3.363555068e-36
2.831087529e-39
3.470007385e-43
1.501288030e-47
5.899874202e-10