/*--------------------------------*- C++ -*----------------------------------*\
| =========                 |                                                 |
| \\      /  F ield         | OpenFOAM: The Open Source CFD Toolbox           |
|  \\    /   O peration     | Version:  5.x                                   |
|   \\  /    A nd           | Web:      www.OpenFOAM.org                      |
|    \\/     M anipulation  |                                                 |
\*---------------------------------------------------------------------------*/
FoamFile
{
    version     2.0;
    format      ascii;
    class       volScalarField;
    location    "3.5";
    object       O;
}
// * * * * * * * * * * * * * * * * * * * * * * * * * * * * * * * * * * * * * //

dimensions      [0 0 0 0 0 0 0];

internalField   nonuniform List<scalar>
51080
(
0.000000000e+00
0.000000000e+00
0.000000000e+00
0.000000000e+00
0.000000000e+00
0.000000000e+00
0.000000000e+00
0.000000000e+00
0.000000000e+00
0.000000000e+00
4.011062954e-37
1.189009559e-36
3.544945114e-36
1.334801572e-35
7.207957480e-35
5.782682542e-34
7.726942907e-33
2.239177655e-31
2.686583979e-29
4.992360159e-26
0.000000000e+00
0.000000000e+00
0.000000000e+00
0.000000000e+00
0.000000000e+00
0.000000000e+00
0.000000000e+00
0.000000000e+00
2.106587323e-37
5.327983910e-37
1.589578601e-36
4.813919577e-36
1.883620838e-35
1.097217536e-34
9.396731847e-34
1.344686841e-32
4.120240234e-31
4.143798140e-29
2.578459894e-26
3.378776964e-23
0.000000000e+00
0.000000000e+00
0.000000000e+00
0.000000000e+00
0.000000000e+00
0.000000000e+00
0.000000000e+00
2.758962335e-37
6.883063204e-37
2.058388879e-36
6.265641952e-36
2.443527498e-35
1.412812661e-34
1.170417673e-33
1.556258511e-32
4.140656879e-31
3.055723619e-29
9.299538764e-27
6.146114087e-24
9.988766126e-22
0.000000000e+00
0.000000000e+00
0.000000000e+00
0.000000000e+00
0.000000000e+00
1.734502485e-37
3.582247755e-37
8.516848214e-37
2.359213853e-36
7.660445212e-36
2.896196230e-35
1.623236999e-34
1.265692125e-33
1.494230167e-32
3.341447876e-31
1.791520167e-29
3.177944854e-27
1.336713332e-24
2.269560552e-22
8.757493288e-21
0.000000000e+00
0.000000000e+00
0.000000000e+00
0.000000000e+00
2.428840249e-37
4.801797116e-37
1.102048589e-36
2.983572637e-36
9.749609592e-36
3.296034988e-35
1.736598461e-34
1.242470069e-33
1.287421638e-32
2.394793036e-31
9.515679247e-30
1.062402944e-27
2.983466027e-25
5.441444594e-23
2.431835133e-21
4.428407594e-20
0.000000000e+00
1.618732446e-37
2.231430321e-37
3.563353074e-37
6.611877297e-37
1.436829857e-36
3.705139661e-36
1.156157836e-35
3.729171251e-35
1.773904288e-34
1.142981347e-33
1.032860042e-32
1.596913400e-31
4.796980608e-30
3.545839516e-28
6.653188200e-26
1.243201252e-23
6.929470035e-22
1.353242889e-20
1.721186397e-19
3.223739495e-37
3.905405148e-37
5.611352970e-37
9.520225807e-37
1.914029008e-36
4.601708680e-36
1.343351652e-35
4.062803287e-35
1.747907626e-34
1.003434977e-33
7.888116356e-33
1.014705687e-31
2.343538229e-30
1.189714586e-28
1.484065351e-26
2.594121238e-24
1.856859306e-22
4.290205540e-21
5.287094905e-20
6.050386082e-19
7.932941562e-37
9.833856526e-37
1.475693132e-36
2.667540633e-36
5.832025911e-36
1.558303360e-35
4.342067309e-35
1.667762931e-34
8.519728763e-34
5.827441007e-33
6.248688916e-32
1.125258932e-30
4.039788784e-29
3.353504291e-27
4.918899750e-25
4.418820685e-23
1.302606197e-21
1.745216328e-20
1.705449342e-19
2.210057859e-18
2.019923674e-36
2.563460132e-36
4.021439233e-36
7.755618570e-36
1.846984734e-35
4.625694754e-35
1.546869140e-34
6.924137952e-34
4.313346060e-33
3.811961752e-32
5.391808116e-31
1.401206739e-29
7.807505374e-28
8.694833250e-26
9.007776761e-24
3.570771531e-22
5.681638370e-21
5.528530747e-20
5.036166975e-19
1.043854547e-17
5.275138382e-36
6.850869339e-36
1.123204394e-35
2.311346817e-35
5.078097695e-35
1.459801235e-34
5.737791218e-34
3.080621233e-33
2.306265531e-32
2.603328401e-31
5.010898188e-30
1.905716167e-28
1.499880717e-26
1.561471951e-24
8.406276389e-23
1.718014948e-21
1.840775218e-20
1.507884187e-19
1.482764927e-18
6.305058785e-14
1.402394464e-35
1.853915620e-35
3.162975890e-35
5.899940695e-35
1.441331822e-34
4.902414666e-34
2.243505026e-33
1.404088220e-32
1.278653088e-31
1.863356462e-30
4.950934046e-29
2.655844750e-27
2.376780565e-25
1.635894032e-23
4.577906742e-22
5.881951675e-21
4.926261236e-20
3.784162651e-19
4.826862322e-18
1.380110867e-11
3.933929886e-35
4.987901988e-35
7.493060349e-35
1.537634335e-34
4.499037068e-34
1.717159445e-33
8.887245183e-33
6.520901198e-32
7.299824047e-31
1.387984570e-29
5.037375099e-28
3.402608357e-26
2.603577617e-24
1.023045811e-22
1.708095066e-21
1.605883399e-20
1.163517458e-19
9.200180631e-19
2.262494496e-17
3.597608052e-10
8.044009322e-35
1.059413549e-34
1.873583369e-34
4.494752221e-34
1.419864098e-33
6.014432094e-33
3.543097161e-32
3.070617907e-31
4.263782338e-30
1.058120820e-28
4.980620403e-27
3.519812471e-25
1.843910207e-23
4.279855563e-22
4.914219479e-21
3.755240938e-20
2.535253923e-19
2.277841199e-18
2.559915188e-13
4.064633167e-09
1.891598787e-34
2.683970334e-34
5.158589782e-34
1.313027430e-33
4.486127428e-33
2.106909957e-32
1.417949297e-31
1.460295610e-30
2.524655083e-29
8.016402571e-28
4.423083677e-26
2.662768771e-24
8.803079813e-23
1.338269337e-21
1.178690351e-20
7.877836476e-20
5.264546701e-19
6.140927981e-18
1.225711074e-11
2.721366667e-08
5.027831368e-34
7.222932052e-34
1.427419799e-33
3.834796194e-33
1.415400479e-32
7.373063354e-32
5.685175579e-31
6.980762852e-30
1.493528382e-28
5.780834859e-27
3.251898501e-25
1.435046360e-23
3.077326536e-22
3.395855923e-21
2.480780950e-20
1.529906508e-19
1.069888010e-18
2.151561007e-17
1.713602066e-10
1.268289343e-07
1.321365247e-33
1.928607210e-33
3.938652566e-33
1.116665609e-32
4.451710822e-32
2.574355931e-31
2.278399905e-30
3.331084266e-29
8.639606519e-28
3.771500128e-26
1.870833087e-24
5.697288200e-23
8.512295088e-22
7.400286511e-21
4.741964017e-20
2.812805148e-19
2.182405074e-18
5.659707567e-14
1.299055907e-09
4.539325953e-07
3.445375997e-33
5.116012735e-33
1.081448748e-32
3.236968252e-32
1.394261469e-31
8.957130653e-31
9.097089391e-30
1.570498870e-28
4.751396824e-27
2.119247882e-25
8.303931346e-24
1.763059834e-22
1.977645078e-21
1.439733751e-20
8.430653909e-20
4.978992899e-19
4.603828422e-18
2.308890359e-12
6.575428514e-09
1.330855402e-06
8.926013917e-33
1.349056088e-32
2.953319424e-32
9.335178161e-32
4.345509261e-31
3.100959547e-30
3.601614626e-29
7.214198769e-28
2.408606695e-26
9.908888531e-25
2.902104138e-23
4.491655630e-22
4.028713972e-21
2.569005288e-20
1.418101912e-19
8.600199509e-19
1.056911201e-17
2.487731210e-11
2.489222534e-08
3.339867745e-06
2.299620305e-32
3.537996470e-32
8.022385994e-32
2.678057361e-31
1.347004678e-30
1.065949738e-29
1.404525185e-28
3.173478117e-27
1.092773693e-25
3.811026632e-24
8.280846988e-23
9.848110071e-22
7.420542124e-21
4.285855384e-20
2.285402267e-19
1.466429222e-18
3.213516024e-17
1.552097304e-10
7.573365537e-08
7.397101897e-06
5.895678926e-32
9.233155957e-32
2.168331669e-31
7.642478830e-31
4.149432742e-30
3.627237048e-29
5.348585677e-28
1.312123197e-26
4.338674371e-25
1.216501453e-23
2.003765078e-22
1.921960101e-21
1.263453893e-20
6.779302835e-20
3.562716890e-19
2.495632045e-18
4.239219064e-14
6.808605004e-10
1.944968638e-07
1.477202005e-05
1.505102590e-31
2.399089002e-31
5.833516250e-31
2.169322982e-30
1.268686517e-29
1.216765599e-28
1.968277859e-27
5.009786043e-26
1.491362102e-24
3.291137329e-23
4.250045128e-22
3.423578205e-21
2.020999460e-20
1.027421194e-19
5.412685633e-19
4.290878745e-18
8.131241243e-13
2.316319082e-09
4.366427484e-07
2.700044524e-05
3.828246083e-31
6.209420791e-31
1.562469228e-30
6.122284463e-30
3.842608936e-29
4.002070991e-28
6.919651159e-27
1.739858105e-25
4.443188886e-24
7.736860745e-23
8.115130133e-22
5.671337281e-21
3.073984228e-20
1.503799585e-19
8.062688613e-19
7.581002297e-18
5.550206231e-12
6.495347801e-09
8.791822210e-07
4.563617465e-05
9.705569058e-31
1.601383946e-30
4.166315987e-30
1.716417888e-29
1.149766745e-28
1.282241912e-27
2.298665322e-26
5.443899731e-25
1.158763490e-23
1.618587844e-22
1.424276660e-21
8.860736310e-21
4.486935404e-20
2.138951070e-19
1.183512872e-18
1.424067997e-17
2.495458125e-11
1.565089291e-08
1.618638274e-06
7.181420180e-05
2.453153796e-30
4.115282381e-30
1.105532664e-29
4.773336967e-29
3.386330530e-28
3.972539139e-27
7.142083606e-26
1.529907617e-24
2.684287732e-23
3.076518555e-22
2.334964314e-21
1.319760522e-20
6.329844629e-20
2.971071398e-19
1.719509873e-18
3.224289913e-17
8.585031780e-11
3.339202380e-08
2.765393432e-06
1.057044652e-04
6.181266804e-30
1.053488302e-29
2.916642858e-29
1.313972749e-28
9.773466605e-28
1.181368648e-26
2.059148363e-25
3.872314269e-24
5.612073697e-23
5.404622990e-22
3.620475735e-21
1.889580178e-20
8.678685573e-20
4.046157945e-19
2.482803196e-18
3.999540661e-15
2.430696293e-10
6.451276770e-08
4.435193231e-06
1.461113250e-04
1.551983440e-29
2.684529769e-29
7.639501604e-29
3.570177496e-28
2.750049683e-27
3.348744962e-26
5.483354446e-25
8.888855323e-24
1.075191249e-22
8.897323559e-22
5.361315965e-21
2.617622768e-20
1.161626396e-19
5.419958108e-19
3.577326931e-18
1.381315753e-13
5.922703885e-10
1.148161121e-07
6.738923784e-06
1.905534146e-04
3.879473660e-29
6.801148463e-29
1.982605609e-28
9.541552315e-28
7.503311033e-27
8.990750042e-26
1.347130985e-24
1.867800046e-23
1.913324908e-22
1.387872905e-21
7.640475150e-21
3.526716050e-20
1.523329887e-19
7.160483472e-19
5.167099499e-18
7.278680978e-13
1.280532190e-09
1.907850979e-07
9.772325530e-06
2.359125970e-04
9.641534963e-29
1.710059302e-28
5.084636753e-28
2.498140627e-27
1.974946295e-26
2.275400722e-25
3.059418601e-24
3.629228278e-23
3.199238250e-22
2.069602758e-21
1.054277892e-20
4.640502092e-20
1.962987936e-19
9.351325423e-19
7.526948748e-18
2.585548944e-12
2.511925337e-09
2.991615383e-07
1.360687305e-05
2.793021397e-04
2.377900433e-28
4.257533738e-28
1.284578159e-27
6.379643111e-27
4.989169122e-26
5.413321793e-25
6.450788841e-24
6.585510781e-23
5.075209118e-22
2.971410332e-21
1.415474777e-20
5.983637413e-20
2.491713268e-19
1.209606141e-18
1.116426295e-17
7.354905138e-12
4.546638921e-09
4.464962112e-07
1.828318414e-05
3.186655431e-04
5.806113072e-28
1.046662747e-27
3.185441031e-27
1.582519044e-26
1.204422031e-25
1.209789712e-24
1.270118158e-23
1.126165228e-22
7.699888289e-22
4.131201176e-21
1.856459821e-20
7.582029446e-20
3.121943449e-19
1.552413213e-18
1.718910177e-17
1.792890448e-11
7.693737675e-09
6.387445891e-07
2.380755021e-05
3.529273074e-04
1.399543156e-27
2.532521158e-27
7.724102941e-27
3.796814428e-26
2.769571843e-25
2.542765732e-24
2.350370447e-23
1.829561839e-22
1.124613151e-21
5.588103152e-21
2.386283018e-20
9.463116477e-20
3.867691249e-19
1.979903886e-18
2.897861760e-17
3.887505002e-11
1.229891333e-08
8.809402018e-07
3.015136206e-05
3.818170312e-04
3.319723034e-27
6.010063693e-27
1.824752984e-26
8.776533286e-26
6.055091414e-25
5.039721272e-24
4.114625953e-23
2.843497802e-22
1.589924769e-21
7.382365578e-21
3.014270109e-20
1.165623548e-19
4.744831520e-19
2.512961287e-18
6.988484705e-17
7.680327642e-11
1.872942439e-08
1.176964883e-06
3.725433383e-05
4.055937898e-04
7.722814406e-27
1.394181259e-26
4.184016975e-26
1.948520420e-25
1.258055302e-24
9.453846176e-24
6.857040095e-23
4.253147621e-22
2.185555061e-21
9.555437369e-21
3.750103973e-20
1.419297681e-19
5.771483165e-19
3.178654102e-18
1.036637099e-14
1.406293709e-10
2.735851198e-08
1.529456383e-06
4.502971092e-05
4.248028794e-04
1.756232675e-26
3.150177322e-26
9.279681560e-26
4.145954484e-25
2.485934038e-24
1.685616864e-23
1.094076813e-22
6.153465429e-22
2.932163330e-21
1.215007331e-20
4.603922203e-20
1.710763236e-19
6.968410139e-19
4.012680283e-18
7.377228932e-14
2.417021489e-10
3.855068700e-08
1.939798833e-06
5.337158293e-05
4.400939545e-04
3.890773593e-26
6.909862132e-26
1.985235468e-25
8.444950554e-25
4.680333630e-24
2.869442753e-23
1.679972978e-22
8.648589592e-22
3.851377768e-21
1.521049131e-20
5.586386366e-20
2.043768288e-19
8.359589532e-19
5.063159898e-18
2.383692066e-13
3.937965403e-10
5.264988201e-08
2.408163666e-06
6.216132061e-05
4.521138276e-04
8.370886912e-26
1.467150906e-25
4.088477562e-25
1.646585609e-24
8.417260207e-24
4.684321079e-23
2.493868711e-22
1.185137405e-21
4.965791822e-21
1.878275500e-20
6.708844323e-20
2.422429700e-19
9.972804413e-19
6.396834565e-18
5.980297369e-13
6.129839544e-10
6.996988233e-08
2.933651385e-06
7.127501110e-05
4.614513065e-04
1.744353625e-25
3.008738898e-25
8.096370954e-25
3.075675240e-24
1.450391099e-23
7.364276827e-23
3.593255579e-22
1.588294871e-21
6.299008121e-21
2.291490169e-20
7.983390319e-20
2.851291299e-19
1.184047229e-18
8.109878191e-18
1.299861576e-12
9.174261388e-10
9.078967837e-08
3.514556407e-06
8.059470688e-05
4.686366269e-04
3.513604951e-25
5.950553789e-25
1.541280274e-24
5.512397294e-24
2.402321470e-23
1.119285461e-22
5.042523316e-22
2.087247022e-21
7.875679340e-21
2.765735185e-20
9.422999104e-20
3.335395175e-19
1.400050913e-18
1.034822944e-17
2.559817213e-12
1.327097354e-09
1.153499164e-07
4.148425761e-06
9.000791671e-05
4.741050719e-04
6.832283064e-25
1.134210382e-24
2.822011938e-24
9.499230127e-24
3.837435285e-23
1.650484983e-22
6.912784287e-22
2.695707502e-21
9.721600950e-21
3.306337252e-20
1.104170421e-19
3.880354413e-19
1.649764917e-18
1.335003566e-17
4.678894721e-12
1.863494910e-09
1.438532971e-07
4.832273387e-06
9.941289994e-05
4.782124254e-04
1.281838179e-24
2.083616512e-24
4.975375367e-24
1.577742235e-23
5.930721875e-23
2.368767139e-22
9.281802675e-22
3.428173500e-21
1.186377871e-20
3.918918721e-20
1.285466014e-19
4.492442472e-19
1.938488032e-18
1.754695214e-17
8.059103309e-12
2.549357876e-09
1.764646194e-07
5.562776587e-06
1.087217967e-04
4.812519092e-04
2.320713006e-24
3.691784407e-24
8.460579315e-24
2.532281695e-23
8.895081731e-23
3.318178662e-22
1.223383871e-21
4.299974597e-21
1.433061014e-20
4.609465580e-20
1.487836965e-19
5.178676551e-19
2.272538298e-18
2.385501199e-17
1.321901000e-11
3.408397721e-09
2.133155886e-07
6.336375374e-06
1.178586060e-04
4.834488220e-04
4.057438771e-24
6.316617307e-24
1.390420243e-23
3.937868967e-23
1.298352665e-22
4.548089889e-22
1.585959413e-21
5.327254748e-21
1.715200199e-20
5.384357837e-20
1.713082516e-19
5.946954167e-19
2.659505479e-18
3.477817090e-17
2.080858773e-11
4.465140313e-09
2.545137742e-07
7.149715862e-06
1.267731293e-04
4.850107016e-04
6.858965870e-24
1.045361890e-23
2.213140754e-23
5.948487380e-23
1.849088043e-22
6.113214923e-22
2.025630491e-21
6.527041085e-21
2.035938393e-20
6.250426225e-20
1.963164687e-19
6.806158183e-19
3.108571372e-18
6.134761377e-17
3.162243644e-11
5.744660442e-09
3.001400986e-07
7.999371942e-06
1.354229243e-04
4.860810657e-04
1.122859230e-23
1.676468383e-23
3.419586581e-23
8.750243523e-23
2.575488756e-22
8.073601988e-22
2.552761283e-21
7.917284078e-21
2.398611937e-20
7.214976104e-20
2.240236442e-19
7.766323339e-19
3.630947558e-18
3.706010239e-16
4.661348968e-11
7.272497729e-09
3.502526136e-07
8.881952905e-06
1.437726295e-04
4.867693882e-04
1.783344257e-23
2.610636817e-23
5.140632375e-23
1.256339705e-22
3.515720737e-22
1.049460777e-21
3.178381539e-21
9.516905496e-21
2.806749045e-20
8.285878447e-20
2.546657988e-19
8.838805036e-19
4.240476807e-18
1.478006011e-14
6.690367654e-11
9.074585774e-09
4.048966542e-07
9.794318488e-06
1.518018542e-04
4.871683001e-04
2.753131906e-23
3.955614941e-23
7.535052673e-23
1.764395406e-22
4.712380897e-22
1.344699122e-21
3.914205495e-21
1.134588224e-20
3.264096555e-20
9.471619404e-20
2.885026821e-19
1.003648510e-18
4.954428089e-18
4.863622581e-14
9.379619613e-11
1.117718045e-08
4.641076834e-07
1.073362570e-05
1.595000429e-04
4.873508517e-04
4.139553692e-23
5.843661492e-23
1.079151000e-22
2.428503160e-22
6.212577445e-22
1.700690421e-21
4.772635761e-21
1.342529837e-20
3.774637550e-20
1.078132426e-19
3.258199583e-19
1.137403266e-18
5.794738273e-18
1.117214672e-13
1.287876390e-10
1.360690406e-08
5.279143664e-07
1.169731745e-05
1.668653859e-04
4.873720525e-04
6.073793975e-23
8.433615770e-23
1.513030785e-22
3.281775890e-22
8.067939614e-22
2.125592571e-21
5.766808884e-21
1.577741439e-20
4.342607115e-20
1.222488576e-19
3.669324760e-19
1.286819690e-18
6.789688068e-18
2.202416790e-13
1.735755767e-10
1.639076935e-08
5.963419476e-07
1.268313804e-05
1.739001556e-04
4.872780744e-04
8.712882602e-23
1.191272625e-22
2.080458248e-22
4.361217623e-22
1.033469760e-21
2.628121498e-21
6.910613614e-21
1.842584556e-20
4.972549035e-20
1.381302062e-19
4.121888187e-19
1.453809654e-18
7.976628929e-18
3.965738493e-13
2.300736332e-10
1.955610298e-08
6.694090703e-07
1.368881701e-05
1.806056706e-04
4.870823291e-04
1.224140956e-22
1.649816334e-22
2.810170411e-22
5.707771532e-22
1.307371494e-21
3.217570699e-21
8.218752279e-21
2.139552882e-20
5.669293037e-20
1.555729830e-19
4.619739738e-19
1.640576404e-18
9.406201287e-18
6.707886924e-13
3.004208727e-10
2.313092581e-08
7.471585854e-07
1.471317862e-05
1.870051312e-04
4.868471699e-04
1.687295659e-22
2.243829677e-22
3.734386632e-22
7.366422474e-22
1.635055201e-21
3.903808699e-21
9.706758852e-21
2.471297178e-20
6.438012358e-20
1.747031741e-19
5.167153020e-19
1.849652752e-18
1.114966267e-17
1.082378585e-12
3.869932816e-10
2.714393292e-08
8.296324624e-07
1.575523434e-05
1.931176802e-04
4.865790278e-04
2.285140325e-22
3.001369224e-22
4.888935804e-22
9.386190034e-22
2.023553074e-21
4.697318583e-21
1.139105318e-20
2.840621361e-20
7.284265812e-20
1.956578720e-19
5.768844955e-19
2.083970649e-18
1.331166392e-17
1.682211520e-12
4.924128669e-10
3.162404223e-08
9.168534386e-07
1.681332261e-05
1.989465298e-04
4.862790916e-04
3.045191720e-22
3.953813827e-22
6.313257086e-22
1.182028785e-21
2.480388195e-21
5.609210795e-21
1.328902246e-20
3.250511219e-20
8.213993912e-20
2.185857801e-19
6.430096073e-19
2.346929995e-18
1.605553799e-17
2.534718354e-12
6.195637697e-10
3.660102864e-08
1.008870375e-06
1.788640965e-05
2.045059734e-04
4.859627444e-04
3.998183030e-22
5.135922884e-22
8.050539606e-22
1.472604949e-21
3.013589070e-21
6.651254496e-21
1.541903640e-20
3.704139384e-20
9.233591021e-20
2.436492004e-19
7.156758191e-19
2.642501830e-18
1.965687228e-17
3.720322621e-12
7.715990688e-10
4.210560487e-08
1.105733071e-06
1.897392223e-05
2.098150517e-04
4.856401159e-04
5.178146699e-22
6.585920407e-22
1.014772687e-21
1.816520108e-21
3.631688356e-21
7.835892600e-21
1.780058076e-20
4.204882873e-20
1.034993305e-19
2.710251946e-19
7.955360757e-19
2.975342821e-18
2.463383437e-17
5.338122625e-12
9.519741255e-10
4.816935678e-08
1.207508984e-06
2.007541809e-05
2.148915120e-04
4.853174391e-04
6.622455889e-22
8.345565864e-22
1.265560074e-21
2.220374027e-21
4.343762204e-21
9.176327036e-21
2.045425058e-20
4.756337301e-20
1.157041769e-19
3.009067222e-19
8.833195159e-19
3.350945906e-18
3.212421489e-17
7.508821242e-12
1.164431407e-09
5.482492934e-08
1.314271174e-06
2.119071654e-05
2.197519179e-04
4.849987878e-04
8.371956391e-22
1.046019747e-21
1.562890688e-21
2.691225388e-21
5.159443790e-21
1.068647933e-20
2.340192404e-20
5.362358211e-20
1.290302354e-19
3.335055919e-19
9.798456913e-19
3.775830544e-18
4.530694913e-17
1.037794741e-11
1.413045482e-09
6.210628138e-08
1.426099266e-06
2.231963367e-05
2.244128808e-04
4.846872309e-04
1.047096407e-21
1.297883461e-21
1.912640536e-21
3.236590657e-21
6.088919809e-21
1.238111508e-20
2.666676969e-20
6.027016879e-20
1.435632607e-19
3.690526636e-19
1.086028376e-18
4.257796644e-18
7.806336995e-17
1.411928858e-11
1.702218973e-09
7.004839329e-08
1.543097474e-06
2.346232124e-05
2.288901916e-04
4.843840860e-04
1.296739441e-21
1.595426567e-21
2.321087998e-21
3.864459524e-21
7.143007577e-21
1.427586599e-20
3.027332805e-20
6.754720287e-20
1.593964739e-19
4.078016737e-19
1.202900869e-18
4.806257943e-18
3.875365556e-16
1.893882559e-11
2.036714656e-09
7.868777880e-08
1.665361087e-06
2.461890631e-05
2.331977765e-04
4.840908287e-04
1.591277868e-21
1.944307266e-21
2.794948018e-21
4.583328010e-21
8.333142475e-21
1.638720808e-20
3.424783002e-20
7.550130407e-20
1.766299885e-19
4.500316050e-19
1.331622043e-18
5.432666210e-18
8.995759093e-15
2.507857832e-11
2.421650906e-09
8.806212062e-08
1.793010585e-06
2.578970128e-05
2.373502337e-04
4.838074694e-04
1.936239136e-21
2.350574205e-21
3.341350154e-21
5.402192051e-21
9.671425589e-21
1.873265559e-20
3.861792525e-20
8.418288102e-20
1.953726150e-19
4.960472628e-19
1.473504976e-18
6.151161021e-18
2.711685398e-14
3.282143234e-11
2.862565430e-09
9.821069063e-08
1.926166041e-06
2.697512969e-05
2.413605015e-04
4.835341109e-04
2.337542339e-21
2.820691580e-21
3.967903656e-21
6.330585328e-21
1.117063862e-20
2.133072524e-20
4.341325509e-20
9.364541856e-20
2.157418691e-19
5.461848551e-19
1.630031228e-18
6.979376100e-18
5.731366858e-14
4.249537517e-11
3.365388220e-09
1.091748322e-07
2.064969286e-06
2.817563906e-05
2.452410907e-04
4.832707958e-04
2.801487766e-21
3.361524746e-21
4.682650837e-21
7.378625928e-21
1.284436747e-20
2.420104656e-20
4.866514130e-20
1.039467510e-19
2.378653159e-19
6.008171754e-19
1.802890657e-18
7.939734542e-18
1.049349216e-13
5.447885502e-11
3.936469531e-09
1.209973397e-07
2.209564260e-06
2.939184204e-05
2.490031368e-04
4.830166314e-04
3.334791043e-21
3.980387576e-21
5.494135784e-21
8.556972307e-21
1.470688632e-20
2.736444015e-20
5.440720713e-20
1.151486168e-19
2.618812403e-19
6.603509845e-19
1.994006559e-18
9.061241134e-18
1.771288798e-13
6.920634080e-11
4.582645342e-09
1.337220434e-07
2.360113244e-06
3.062434233e-05
2.526575877e-04
4.827711973e-04
3.944591067e-21
4.685024093e-21
6.411419075e-21
9.876945384e-21
1.677336262e-20
3.084297516e-20
6.067502900e-20
1.273176120e-19
2.879405260e-19
7.252406192e-19
2.205569256e-18
1.038245170e-17
2.832530571e-13
8.717432711e-11
5.311222059e-09
1.473959728e-07
2.516776191e-06
3.187372721e-05
2.562142266e-04
4.825338015e-04
4.638454508e-21
5.483656010e-21
7.444066670e-21
1.135048992e-20
1.905984026e-20
3.466002506e-20
6.750677492e-20
1.405252741e-19
3.162059989e-19
7.959849956e-19
2.440098221e-18
1.195600443e-17
4.353935774e-13
1.089467487e-10
6.130019063e-09
1.620675791e-07
2.679736327e-06
3.314082697e-05
2.596828526e-04
4.823034410e-04
5.424412913e-21
6.384994032e-21
8.602222848e-21
1.299027579e-20
2.158331805e-20
3.884052086e-20
7.494316204e-20
1.548484761e-19
3.468565286e-19
8.731390972e-19
2.700491488e-18
1.385651316e-17
6.489394260e-13
1.351626904e-10
7.047310669e-09
1.777867458e-07
2.849181743e-06
3.442644011e-05
2.630710725e-04
4.820794759e-04
6.310953937e-21
7.398234178e-21
9.896602404e-21
1.480961385e-20
2.436171134e-20
4.341084375e-20
8.302754144e-20
1.703700897e-19
3.800857234e-19
9.573206483e-19
2.990107369e-18
1.619497407e-17
9.432939510e-13
1.665421836e-10
8.072058922e-09
1.946065581e-07
3.025303797e-06
3.573121918e-05
2.663869748e-04
4.818607437e-04
7.307086187e-21
8.533122268e-21
1.133851596e-20
1.682267658e-20
2.741414284e-20
4.839915446e-20
9.180649530e-20
1.871797698e-19
4.161054243e-19
1.049212496e-18
3.312830920e-18
1.914635596e-17
1.342647377e-12
2.038951996e-10
9.213683110e-09
2.125816082e-07
3.208324836e-06
3.705616897e-05
2.696380288e-04
4.816465827e-04
8.422309142e-21
9.799965663e-21
1.293994922e-20
1.904443249e-20
3.076080321e-20
5.383532161e-20
1.013296195e-19
2.053737652e-19
4.551470121e-19
1.149580972e-18
3.673217216e-18
2.300928314e-17
1.876879201e-12
2.481302492e-10
1.048230128e-08
2.317701309e-07
3.398452887e-06
3.840215935e-05
2.728302859e-04
4.814363119e-04
9.666686169e-21
1.120964533e-20
1.471357969e-20
2.149066989e-20
3.442302709e-20
5.975115788e-20
1.116503452e-19
2.250563675e-19
4.974643759e-19
1.259278733e-18
4.076604021e-18
2.835008800e-17
2.582590850e-12
3.002567301e-10
1.188860329e-08
2.522300432e-07
3.595920038e-06
3.976986182e-05
2.759702050e-04
4.812288053e-04
1.105083293e-20
1.277366642e-20
1.667276775e-20
2.417819134e-20
3.842360986e-20
6.618053496e-20
1.228257564e-19
2.463403042e-19
5.433329710e-19
1.379261248e-18
4.529321736e-18
3.641654818e-17
3.504238703e-12
3.614038276e-10
1.344404313e-08
2.740254287e-07
3.800958638e-06
4.116035739e-05
2.790628550e-04
4.810234514e-04
1.258601516e-20
1.450419224e-20
1.883167602e-20
2.712467966e-20
4.278665164e-20
7.315974248e-20
1.349171836e-19
2.693476801e-19
5.930584029e-19
1.510599030e-18
5.038884939e-18
5.067140545e-17
4.695442934e-12
4.328198904e-10
1.516067301e-08
2.972204490e-07
4.013835629e-06
4.257435530e-05
2.821133013e-04
4.808195150e-04
1.428408256e-20
1.641409038e-20
2.120530504e-20
3.034890614e-20
4.753771296e-20
8.072730546e-20
1.479902955e-19
2.942102447e-19
6.469737239e-19
1.654493916e-18
5.614364322e-18
8.578044093e-17
6.220497374e-12
5.158927991e-10
1.705138520e-08
3.218828640e-07
4.234790019e-06
4.401297751e-05
2.851259016e-04
4.806162644e-04
1.615758160e-20
1.851694906e-20
2.380945997e-20
3.387086864e-20
5.270405801e-20
8.892433502e-20
1.621157712e-19
3.210714812e-19
7.054447162e-19
1.812308769e-18
6.266762853e-18
3.615750936e-16
8.155833542e-12
6.121480214e-10
1.912972242e-08
3.480819728e-07
4.464108968e-06
4.547706294e-05
2.881052875e-04
4.804129424e-04
1.821978561e-20
2.082709678e-20
2.666089192e-20
3.771159251e-20
5.831474647e-20
9.779493091e-20
1.773697004e-19
3.500869161e-19
7.688774744e-19
1.985573758e-18
7.009539435e-18
6.816100284e-15
1.059200248e-11
7.232733127e-10
2.141018748e-08
3.758929063e-07
4.702055441e-06
4.696743803e-05
2.910550418e-04
4.802087133e-04
2.048469311e-20
2.335980879e-20
2.977739948e-20
4.189351051e-20
6.440048418e-20
1.073861716e-19
1.938339468e-19
3.814255530e-19
8.377148616e-19
2.176027732e-18
7.859563382e-18
2.022547927e-14
1.363541457e-11
8.511165315e-10
2.390797532e-08
4.053923595e-07
4.948929554e-06
4.848520834e-05
2.939782496e-04
4.800032488e-04
2.296714142e-20
2.613110404e-20
3.317773393e-20
4.644036697e-20
7.099407073e-20
1.177481989e-19
2.115965334e-19
4.152715354e-19
9.124505341e-19
2.385647959e-18
8.838100532e-18
4.155957803e-14
1.741081170e-11
9.977097476e-10
2.663934614e-08
4.366575406e-07
5.205038483e-06
5.003141850e-05
2.968781351e-04
4.797954927e-04
2.568280326e-20
2.915803947e-20
3.688188467e-20
5.137742158e-20
7.813060051e-20
1.289351242e-19
2.307526818e-19
4.518247031e-19
9.936288168e-19
2.616690027e-18
9.972642364e-18
7.395254810e-14
2.206347487e-11
1.165271910e-09
2.962125143e-08
4.697732839e-07
5.470675786e-06
5.160654588e-05
2.997576447e-04
4.795853574e-04
2.864831378e-20
3.245857437e-20
4.091089310e-20
5.673146138e-20
8.584721103e-20
1.410046409e-19
2.514045262e-19
4.913025850e-19
1.081848581e-18
2.871733487e-18
1.129949093e-17
1.215410000e-13
2.776176506e-11
1.356235013e-09
3.287181781e-08
5.048244722e-07
5.746178194e-06
5.321202082e-05
3.026185891e-04
4.793720569e-04
3.188115361e-20
3.605186236e-20
4.528714556e-20
6.253105212e-20
9.418368767e-20
1.540187012e-19
2.736632272e-19
5.339442207e-19
1.177781994e-18
3.153752787e-18
1.286806126e-17
1.896728654e-13
3.470037301e-11
1.573236443e-09
3.641005222e-08
5.419012665e-07
6.031882237e-06
5.484844134e-05
3.054629086e-04
4.791550347e-04
3.539997745e-20
3.995806522e-20
5.003452826e-20
6.880646601e-20
1.031826763e-19
1.680437844e-19
2.976482200e-19
5.800089589e-19
1.282172335e-18
3.466167306e-18
1.474800225e-17
2.851744201e-13
4.310293376e-11
1.819170731e-09
4.025617634e-08
5.810991095e-07
6.328115828e-06
5.651682364e-05
3.082933641e-04
4.789338576e-04
3.922452923e-20
4.419865598e-20
5.517819276e-20
7.558995587e-20
1.128893596e-19
1.831510327e-19
3.234894690e-19
6.297817977e-19
1.395846807e-18
3.812955215e-18
1.704181424e-17
4.166710018e-13
5.322534291e-11
2.097151291e-09
4.443120268e-08
6.225106721e-07
6.635253199e-06
5.821808916e-05
3.111109071e-04
4.787075626e-04
4.337558927e-20
4.879644351e-20
6.074489635e-20
8.291601299e-20
1.233521538e-19
1.994175933e-19
3.513263302e-19
6.835742259e-19
1.519730566e-18
4.198761047e-18
1.990920183e-17
5.949669939e-13
6.536046044e-11
2.410586303e-09
4.895763073e-08
6.662414009e-07
6.953634633e-06
5.995307647e-05
3.139174102e-04
4.784761917e-04
4.787536793e-20
5.377537090e-20
6.676326148e-20
9.082124455e-20
1.346232010e-19
2.169256256e-19
3.813115314e-19
7.417282479e-19
1.654856931e-18
4.629027617e-18
2.361747273e-17
8.334685686e-13
7.984041082e-11
2.763148479e-09
5.385889979e-08
7.123926430e-07
7.283669929e-06
6.172286835e-05
3.167138845e-04
4.782386232e-04
5.274736354e-20
5.916130456e-20
7.326358607e-20
9.934467646e-20
1.467580268e-19
2.357640064e-19
4.136100018e-19
8.046187539e-19
1.802385081e-18
5.110197137e-18
2.865908624e-17
1.148685470e-12
9.704210377e-11
3.158811989e-09
5.915985605e-08
7.610746016e-07
7.625712401e-06
6.352834212e-05
3.195021572e-04
4.779949865e-04
5.801643755e-20
6.498125706e-20
8.027810062e-20
1.085280427e-19
1.598159597e-19
2.560287413e-19
4.484003408e-19
8.726589600e-19
1.963623462e-18
5.649942266e-18
3.607000021e-17
1.560813084e-12
1.173920395e-10
3.601894141e-09
6.488661972e-08
8.124028944e-07
7.980214257e-06
6.537043757e-05
3.222827307e-04
4.777440937e-04
6.370917679e-20
7.126430384e-20
8.784109141e-20
1.184158509e-19
1.738608566e-19
2.778227311e-19
4.858783529e-19
9.463026075e-19
2.140037058e-18
6.257487450e-18
4.850621758e-17
2.094350880e-12
1.413696764e-10
4.096999366e-09
7.106655386e-08
8.664907704e-07
8.347558690e-06
6.724986491e-05
3.250561061e-04
4.774859402e-04
6.985371864e-20
7.804113064e-20
9.598937922e-20
1.290558313e-19
1.889611716e-19
3.012572452e-19
5.262556869e-19
1.026050930e-18
2.333284811e-18
6.944024104e-18
7.552977551e-17
2.778866033e-12
1.695140868e-10
4.649124388e-09
7.772843758e-08
9.234645797e-07
8.728181529e-06
6.916773170e-05
3.278233508e-04
4.772201199e-04
7.647984267e-20
8.534463863e-20
1.047616850e-19
1.404986266e-19
2.051908353e-19
3.264528965e-19
5.697628855e-19
1.112458845e-18
2.545254580e-18
7.723333324e-18
1.944416578e-16
3.649827684e-12
2.024284361e-10
5.263675906e-09
8.490286665e-08
9.834498532e-07
9.122528249e-06
7.112483353e-05
3.305845958e-04
4.769459092e-04
8.361951841e-20
9.320950579e-20
1.141999323e-19
1.527987421e-19
2.226282081e-19
3.535394997e-19
6.166523469e-19
1.206138740e-18
2.778083962e-18
8.612607818e-18
3.623472917e-15
4.749505858e-12
2.407887035e-10
5.946371509e-09
9.262155681e-08
1.046576408e-06
9.531032660e-06
7.312183464e-05
3.333397490e-04
4.766631918e-04
9.130672788e-20