/*--------------------------------*- C++ -*----------------------------------*\
| =========                 |                                                 |
| \\      /  F ield         | OpenFOAM: The Open Source CFD Toolbox           |
|  \\    /   O peration     | Version:  5.x                                   |
|   \\  /    A nd           | Web:      www.OpenFOAM.org                      |
|    \\/     M anipulation  |                                                 |
\*---------------------------------------------------------------------------*/
FoamFile
{
    version     2.0;
    format      ascii;
    class       volScalarField;
    location    "3.5";
    object       O2;
}
// * * * * * * * * * * * * * * * * * * * * * * * * * * * * * * * * * * * * * //

dimensions      [0 0 0 0 0 0 0];

internalField   nonuniform List<scalar>
51080
(
2.706715139e-03
2.841058886e-03
3.103515366e-03
3.506378969e-03
4.074500874e-03
4.844490904e-03
5.866531283e-03
7.206986658e-03
8.951265365e-03
1.120620500e-02
9.713982909e-45
3.882230786e-44
1.505417860e-43
7.504705003e-43
5.514451094e-42
6.097963675e-41
1.136874253e-39
4.728398789e-38
8.829804692e-36
3.169757509e-32
3.749961499e-03
3.935297951e-03
4.296848085e-03
4.850495141e-03
5.628672428e-03
6.678900681e-03
8.065789007e-03
9.873989038e-03
4.253871642e-45
1.421741786e-44
5.668551337e-44
2.221252617e-43
1.148589839e-42
9.119123387e-42
1.072894698e-40
2.132843369e-39
9.329273020e-38
1.427605878e-35
1.556299970e-32
4.036723046e-29
5.085300654e-03
5.334496032e-03
5.819696002e-03
6.560380571e-03
7.596957032e-03
8.988257498e-03
1.081373915e-02
6.133228218e-45
1.995535217e-44
7.909562002e-44
3.095766359e-43
1.581858753e-42
1.234802554e-41
1.388613528e-40
2.529227297e-39
9.444764258e-38
1.031252640e-35
5.157541271e-33
6.212037561e-30
1.747651616e-27
6.748702377e-03
7.075281348e-03
7.709632162e-03
8.674112149e-03
1.001594402e-02
3.356275440e-45
8.693210745e-45
2.638289850e-44
9.443183087e-44
3.983143800e-43
1.950471973e-42
1.460925924e-41
1.527625468e-40
2.431898705e-39
7.504436161e-38
5.795304029e-36
1.611054338e-33
1.169683268e-30
3.362954522e-28
2.019839934e-26
8.767799474e-03
9.185891598e-03
9.996154346e-03
1.122361328e-02
5.268276486e-45
1.277867127e-44
3.678382405e-44
1.270443724e-43
5.364365970e-43
2.286987421e-42
1.588756489e-41
1.503955603e-40
2.070304588e-39
5.228206957e-38
2.921261010e-36
4.913143032e-34
2.275087894e-31
6.924114369e-29
4.779710605e-27
1.282618835e-25
1.115795784e-02
3.092315222e-45
4.731989818e-45
8.729698753e-45
1.934556209e-44
5.157503331e-44
1.666177886e-43
6.617197790e-43
2.658669919e-42
1.635825899e-41
1.374221723e-40
1.626171221e-39
3.360996147e-38
1.389428182e-36
1.495455835e-34
4.435993146e-32
1.361029360e-29
1.173766470e-27
3.333053910e-26
6.144430730e-25
7.684028350e-45
9.859949225e-45
1.573241585e-44
3.084026489e-44
7.401670119e-44
2.179927769e-43
7.950867764e-43
2.952183998e-42
1.614130171e-41
1.189822760e-40
1.207820418e-39
2.046401357e-38
6.378126492e-37
4.576355556e-35
8.675215026e-33
2.436932129e-30
2.711891761e-28
9.106652256e-27
1.582746330e-25
2.679913592e-24
2.452359000e-44
3.219779482e-44
5.363972375e-44
1.119402990e-43
2.916644868e-43
9.520725378e-43
3.201536748e-42
1.533424967e-41
9.910033069e-41
8.634856039e-40
1.202044301e-38
2.868834688e-37
1.417762757e-35
1.723998773e-33
3.952276778e-31
5.534221817e-29
2.388521132e-27
4.473461734e-26
6.124622261e-25
1.276064375e-23
7.944646211e-44
1.067373526e-43
1.857023980e-43
4.127322756e-43
1.168205449e-42
3.456025413e-42
1.408899221e-41
7.847090976e-41
6.179375006e-40
6.977158120e-39
1.285312061e-37
4.489979825e-36
3.543295466e-34
5.968011100e-32
9.594031968e-30
5.632006308e-28
1.255340955e-26
1.674403498e-25
2.176349683e-24
9.656377356e-23
2.588997581e-43
3.556279030e-43
6.455333766e-43
1.527046505e-42
3.861839524e-42
1.319852603e-41
6.346785533e-41
4.243678902e-40
4.006349821e-39
5.795852805e-38
1.467806196e-36
7.669065899e-35
8.812577156e-33
1.402643393e-30
1.130539788e-28
3.268030337e-27
4.770996425e-26
5.337767907e-25
7.921399832e-24
9.703011931e-16
8.429010680e-43
1.176049304e-42
2.215385296e-42
4.608450325e-42
1.302149777e-41
5.311451513e-41
2.975139885e-40
2.312522217e-39
2.657480788e-38
4.997451442e-37
1.775366970e-35
1.342793323e-33
1.791611807e-31
1.854775529e-29
7.447500027e-28
1.309193903e-26
1.472226557e-25
1.564045540e-24
3.472825488e-23
1.479247514e-12
2.866604182e-42
3.788462789e-42
6.097059352e-42
1.404441432e-41
4.820161326e-41
2.203507360e-40
1.391392986e-39
1.267137718e-38
1.797018330e-37
4.458845610e-36
2.208317340e-34
2.153546139e-32
2.461236570e-30
1.408229747e-28
3.254140394e-27
4.095566134e-26
3.968608184e-25
4.489050919e-24
3.224507401e-22
7.926458734e-11
6.625677288e-42
9.127088435e-42
1.765293928e-41
4.818154528e-41
1.779243151e-40
9.006376187e-40
6.465256913e-39
6.967441151e-38
1.234595284e-36
4.058605096e-35
2.663889950e-33
2.755396083e-31
2.119851935e-29
6.921249212e-28
1.070806998e-26
1.081513010e-25
9.826142594e-25
1.354663586e-23
8.026889589e-15
1.459607885e-09
1.785485318e-41
2.670623236e-41
5.640993604e-41
1.629559369e-40
6.492105407e-40
3.637963684e-39
2.984987671e-38
3.839379987e-37
8.558583305e-36
3.662829451e-34
2.869573025e-32
2.526193019e-30
1.193936402e-28
2.478921668e-27
2.887377833e-26
2.536762217e-25
2.322020618e-24
4.840027422e-23
1.291297434e-12
1.441037771e-08
5.479651346e-41
8.278335427e-41
1.791559541e-40
5.448011887e-40
2.340186446e-39
1.453833338e-38
1.369795319e-37
2.114754303e-36
5.908529907e-35
3.136025052e-33
2.530112661e-31
1.610127852e-29
4.798660221e-28
7.068078741e-27
6.745408593e-26
5.473507658e-25
5.418346044e-24
3.060759756e-22
3.265908820e-11
9.375138171e-08
1.642195926e-40
2.516636878e-40
5.615320793e-40
1.798367764e-39
8.334262400e-39
5.752072134e-38
6.245109201e-37
1.158012398e-35
3.977216952e-34
2.414788258e-32
1.717255603e-30
7.382820855e-29
1.495201849e-27
1.705656865e-26
1.417675965e-25
1.114462899e-24
1.295595999e-23
8.730171859e-16
3.739921990e-10
4.526677409e-07
4.833644094e-40
7.527685196e-40
1.735751568e-39
5.860947848e-39
2.934004455e-38
2.253995150e-37
2.823704583e-36
6.245466934e-35
2.536148870e-33
1.586588170e-31
8.825338056e-30
2.584992831e-28
3.850768739e-27
3.633478019e-26
2.751858768e-25
2.184247340e-24
3.347474096e-23
1.576319781e-13
2.619530175e-09
1.748915559e-06
1.401796203e-39
2.220251498e-39
5.296219475e-39
1.887321796e-38
1.021758063e-37
8.746346445e-37
1.261510787e-35
3.272335625e-34
1.483085705e-32
8.567565617e-31
3.505916145e-29
7.326653107e-28
8.586988342e-27
7.036786535e-26
5.028123328e-25
4.190596121e-24
1.045085086e-22
3.133146289e-12
1.302433428e-08
5.683589355e-06
4.014478305e-39
6.469040282e-39
1.597363354e-38
6.011655685e-38
3.522075362e-37
3.357288033e-36
5.535470620e-35
1.636588944e-33
7.707257363e-32
3.752658915e-30
1.118508956e-28
1.762950766e-27
1.714104770e-26
1.265287493e-25
8.771669812e-25
7.996138815e-24
6.342078063e-22
2.920010861e-11
5.025466396e-08
1.607261896e-05
1.137410580e-38
1.865125973e-38
4.768949324e-38
1.896177849e-37
1.201982525e-36
1.271921882e-35
2.365709901e-34
7.662077547e-33
3.473880467e-31
1.345047421e-29
2.983927018e-28
3.734602023e-27
3.137533229e-26
2.145214844e-25
1.477170904e-24
1.543942812e-23
5.679051005e-16
1.733811598e-10
1.595637212e-07
4.048654143e-05
3.193445140e-38
5.329330004e-38
1.411205911e-37
5.927192809e-37
4.059195895e-36
4.738663273e-35
9.743748409e-34
3.295464369e-32
1.341883764e-30
4.032625747e-29
6.896568401e-28
7.156703951e-27
5.360072833e-26
3.469364094e-25
2.422651904e-24
3.085777585e-23
4.060523276e-14
7.535444718e-10
4.342164658e-07
9.231103941e-05
8.897649912e-38
1.511137707e-37
4.143341714e-37
1.836738320e-36
1.354684921e-35
1.727184431e-34
3.821942757e-33
1.281160676e-31
4.445376032e-30
1.038406454e-28
1.421124054e-27
1.266102744e-26
8.660330815e-26
5.399919217e-25
3.898440617e-24
6.626678692e-23
4.881917364e-13
2.597763873e-09
1.042858285e-06
1.925524520e-04
2.463023555e-37
4.256408669e-37
1.207754047e-36
5.640888036e-36
4.457288949e-35
6.118935049e-34
1.411305269e-32
4.455207830e-31
1.275946245e-29
2.355832097e-28
2.670219480e-27
2.099749207e-26
1.336788317e-25
8.145323201e-25
6.195694387e-24
1.661845525e-22
3.172589895e-12
7.485374636e-09
2.259060603e-06
3.699096502e-04
6.779578656e-37
1.191706591e-36
3.495655172e-36
1.715175447e-35
1.440975937e-34
2.091183258e-33
4.852922787e-32
1.380845293e-30
3.222329112e-29
4.814716826e-28
4.655312446e-27
3.302951312e-26
1.986819244e-25
1.197383502e-24
9.785858034e-24
6.600024975e-22
1.435565117e-11
1.869998727e-08
4.487139367e-06
6.571339204e-04
1.856378528e-36
3.317104066e-36
1.004149583e-35
5.153886384e-35
4.557043341e-34
6.841471931e-33
1.540671292e-31
3.824618717e-30
7.282478135e-29
9.029115688e-28
7.633378967e-27
4.973044736e-26
2.860926686e-25
1.723197226e-24
1.545994652e-23
9.453822160e-18
5.055841543e-11
4.159960398e-08
8.277567273e-06
1.082858642e-03
5.056472900e-36
9.176162119e-36
2.859563275e-35
1.526411740e-34
1.402437123e-33
2.126796684e-32
4.492769129e-31
9.535249602e-30
1.496988256e-28
1.577073764e-27
1.189729606e-26
7.218291026e-26
4.011065738e-25
2.437003411e-24
2.460918409e-23
3.511119593e-15
1.476518188e-10
8.408339439e-08
1.432563546e-05
1.661606949e-03
1.369317565e-35
2.520373805e-35
8.058199397e-35
4.440416172e-34
4.176531932e-33
6.239706855e-32
1.201740272e-30
2.160897595e-29
2.839779432e-28
2.596550899e-27
1.777345281e-26
1.015822911e-25
5.497496090e-25
3.397764557e-24
3.984215617e-23
3.550717829e-14
3.725645640e-10
1.568468363e-07
2.345000910e-05
2.387774427e-03
3.682537080e-35
6.862642499e-35
2.241387298e-34
1.263582396e-33
1.197092546e-32
1.718778398e-31
2.954232748e-30
4.499412878e-29
5.033515135e-28
4.068733092e-27
2.562006581e-26
1.392427994e-25
7.390281018e-25
4.683415129e-24
6.651291566e-23
1.866551052e-13
8.359395154e-10
2.733568452e-07
3.655044784e-05
3.237437624e-03
9.818029594e-35
1.848352652e-34
6.134227428e-34
3.501511037e-33
3.284404166e-32
4.431565834e-31
6.704468977e-30
8.699136988e-29
8.423698644e-28
6.115081019e-27
3.582672848e-26
1.866091678e-25
9.771147152e-25
6.398125703e-24
1.171971592e-22
7.026963726e-13
1.703576890e-09
4.495263627e-07
5.454894634e-05
4.175976283e-03
2.588996034e-34
4.910585030e-34
1.645734098e-33
9.407519054e-33
8.585513356e-32
1.068554887e-30
1.413227343e-29
1.576959119e-28
1.342562130e-27
8.870567954e-27
4.881449961e-26
2.452720002e-25
1.273590507e-24
8.682941906e-24
2.286077495e-22
2.129131916e-12
3.204618681e-09
7.031377180e-07
7.832108701e-05
5.166599808e-03
6.733239344e-34
1.282633845e-33
4.311307627e-33
2.439447648e-32
2.130775355e-31
2.412305914e-30
2.785850223e-29
2.703593905e-28
2.052439673e-27
1.248336781e-26
6.503795687e-26
3.169873643e-25
1.639743829e-24
1.173184936e-23
5.609520555e-22
5.511448189e-12
5.635090777e-09
1.053079651e-06
1.086244864e-04
6.176109743e-03
1.721350253e-33
3.281837184e-33
1.098567171e-32
6.079930643e-32
5.010341290e-31
5.112724026e-30
5.171610103e-29
4.416713657e-28
3.027471546e-27
1.711473376e-26
8.498747030e-26
4.037027168e-25
2.088940706e-24
1.581643652e-23
3.127286012e-21
1.263841264e-11
9.356412188e-09
1.518486445e-06
1.460386072e-04
7.177653470e-03
4.310691897e-33
8.196576574e-33
2.711834259e-32
1.451539017e-31
1.115569691e-30
1.021247252e-29
9.101468959e-29
6.919724732e-28
4.330042875e-27
2.293936153e-26
1.091929887e-25
5.075862292e-25
2.637110613e-24
2.132539624e-23
5.628306897e-17
2.630747866e-11
1.478937011e-08
2.117923124e-06
1.909187122e-04
8.151292966e-03
1.053781476e-32
1.990745150e-32
6.461404410e-32
3.311671926e-31
2.353691825e-30
1.931158702e-29
1.527865102e-28
1.045413474e-27
6.029515889e-27
3.014591748e-26
1.382290200e-25
6.310636199e-25
3.303335802e-24
2.882973198e-23
1.411521870e-15
5.058650168e-11
2.240439793e-08
2.868640688e-06
2.433735208e-04
9.083178428e-03
2.505531976e-32
4.684976990e-32
1.481513587e-31
7.211121630e-31
4.714462416e-30
3.473544239e-29
2.460084976e-28
1.530086388e-27
8.202301362e-27
3.893782076e-26
1.727193684e-25
7.768616088e-25
4.110644449e-24
3.919553805e-23
7.809553289e-15
9.104974958e-11
3.270992034e-08
3.785922965e-06
3.032564130e-04
9.964238787e-03
5.774712021e-32
1.065028670e-31
3.261708330e-31
1.498373246e-30
8.988814737e-30
5.970948696e-29
3.817949885e-28
2.178151178e-27
1.093204926e-26
4.953480178e-26
2.133456443e-25
9.480574837e-25
5.086985481e-24
5.379007628e-23
2.766510816e-14
1.549703373e-10
4.623939808e-08
4.882675598e-06
3.701836116e-04
1.078905347e-02
1.286450841e-31
2.333041995e-31
6.886370646e-31
2.973347522e-30
1.636605195e-29
9.853224086e-29
5.735699582e-28
3.025946279e-27
1.430997462e-26
6.217392698e-26
2.608532389e-25
1.148138470e-24
6.266544203e-24
7.488410758e-23
7.748682865e-14
2.514650769e-10
6.354003906e-08
6.169389848e-06
4.436011272e-04
1.155601245e-02
2.763976758e-31
4.916767081e-31
1.393754061e-30
5.643826910e-30
2.855294881e-29
1.567441385e-28
8.372218833e-28
4.114122683e-27
1.843520305e-26
7.711158031e-26
3.160605169e-25
1.381074619e-24
7.691382120e-24
1.065057081e-22
1.863762245e-13
3.915828672e-10
8.516140106e-08
7.653831995e-06
5.227923017e-04
1.226491635e-02
5.719109541e-31
9.960559672e-31
2.705468859e-30
1.026946816e-29
4.790119795e-29
2.412832025e-28
1.191238259e-27
5.487814728e-27
2.341529004e-26
9.462586756e-26
3.798706483e-25
1.651401760e-24
9.413752925e-24
1.564598224e-22
4.016765844e-13
5.883491012e-10
1.116470197e-07
9.341177192e-06
6.069365046e-04
1.291666295e-02
1.138914748e-30
1.939694430e-30
5.042809968e-30
1.795874005e-29
7.753808957e-29
3.606365778e-28
1.656850548e-27
7.196788494e-27
2.936671999e-26
1.150181069e-25
4.532803134e-25
1.964323675e-24
1.149907795e-23
2.418552273e-22
7.956995744e-13
8.567747387e-10
1.435262713e-07
1.123424647e-05
6.951622757e-04
1.351341562e-02
2.183068248e-30
3.633543158e-30
9.041115221e-30
3.026578452e-29
1.214975540e-28
5.249771158e-28
2.258156987e-27
9.295738325e-27
3.641576372e-26
1.386163147e-25
5.373954011e-25
2.325824792e-24
1.403006423e-23
4.077263158e-22
1.473459204e-12
1.213834212e-09
1.813112223e-07
1.333366845e-05
7.865686215e-04
1.405745204e-02
4.030658766e-30
6.555787426e-30
1.562421508e-29
4.929383476e-29
1.848482663e-28
7.462933201e-28
3.022259211e-27
1.184444448e-26
4.469925041e-26
1.657777735e-25
6.334452614e-25
2.742825125e-24
1.711241558e-23
8.140729292e-22
2.581321320e-12
1.678460154e-09
2.254993602e-07
1.563899231e-05
8.803815486e-04
1.455323803e-02
7.177400436e-30
1.141173002e-29
2.608550557e-29
7.780262097e-29
2.738184494e-28
1.038517258e-27
3.979428066e-27
1.490814172e-26
5.436507382e-26
1.968927171e-25
7.427978229e-25
3.223341336e-24
2.088278927e-23
2.500004439e-21
4.316337422e-12
2.271468439e-09
2.765661707e-07
1.814806174e-05
9.758356820e-04
1.500415163e-02
1.234681013e-29
1.920281418e-29
4.217639294e-29
1.193169723e-28
3.959137299e-28
1.417645512e-27
5.163223970e-27
1.855784777e-26
6.557393704e-26
2.323871527e-25
8.669822163e-25
3.776703719e-24
2.552030124e-23
9.731016637e-20
6.936500127e-12
3.015544891e-09
3.349646865e-07
2.085738212e-05
1.072183368e-03
1.541262332e-02
2.055714391e-29
3.130335971e-29
6.619844704e-29
1.782347502e-28
5.600343475e-28
1.901854191e-27
6.610699042e-27
2.287073441e-26
7.849994971e-26
2.727282804e-25
1.007709170e-24
4.413809207e-24
3.126341680e-23
1.079187093e-16
1.077129532e-11
3.935229313e-09
4.011336129e-07
2.376286324e-05
1.168803473e-03
1.578213696e-02
3.319542734e-29
4.954256633e-29
1.010988071e-28
2.599323994e-28
7.765825136e-28
2.511636723e-27
8.362595517e-27
2.793060804e-26
9.333212912e-26
3.184290258e-25
1.166898382e-24
5.147431269e-24
3.843505084e-23
7.599569125e-16
1.623322080e-11
5.056894941e-09
4.754988976e-07
2.686014207e-05
1.265171888e-03
1.611607376e-02
5.209622193e-29
7.629073020e-29
1.505655177e-28
3.708698285e-28
1.057576836e-27
3.269922244e-27
1.046351468e-26
3.382835199e-26
1.102757352e-25
3.700516790e-25
1.346706351e-24
5.992620267e-24
4.748231628e-23
2.674480501e-15
2.383011098e-11
6.408794073e-09
5.584769802e-07
3.014475169e-05
1.360866549e-03
1.641755745e-02
7.962448432e-29
1.145466071e-28
2.191238479e-28
5.186898713e-28
1.416754266e-27
4.202201883e-27
1.296219494e-26
4.066243578e-26
1.295536410e-25
4.282161249e-25
1.549561020e-24
6.967181740e-24
5.903868487e-23
7.097976979e-15
3.417715422e-11
8.021084551e-09
6.504771443e-07
3.361227346e-05
1.455527365e-03
1.668952469e-02
1.187597968e-28
1.680261660e-28
3.122273319e-28
7.123188234e-28
1.869684812e-27
5.336683846e-27
1.591173224e-26
4.853976986e-26
1.514091452e-25
4.936056678e-25
1.778206696e-24
8.092247454e-24
7.402901617e-23
1.605800409e-14
4.801129614e-11
9.925826017e-09
7.519004410e-07
3.725769241e-05
1.548825109e-03
1.693422863e-02
1.731811690e-28
2.412505910e-28
4.363545231e-28
9.620606473e-28
2.433878379e-27
6.704462074e-27
1.936992919e-26
5.757600593e-26
1.761063524e-25
5.669725814e-25
2.035745199e-24
9.393107809e-24
9.385105640e-23
3.268841533e-14
6.620522009e-11
1.215724346e-08
8.631787717e-07
4.107897061e-05
1.640683466e-03
1.715484325e-02
2.473512709e-28
3.396336171e-28
5.990943939e-28
1.279701645e-27
3.128898248e-27
8.339641279e-27
2.339954597e-26
6.789669917e-26
2.039332780e-25
6.491495528e-25
2.325696774e-24
1.090010339e-23
1.207123590e-22
6.163997405e-14
8.978251487e-11
1.475175384e-08
9.847442571e-07
4.507438819e-05
1.731050439e-03
1.735508523e-02
3.466016348e-28
4.695666441e-28
8.092446215e-28
1.678596042e-27
3.976476651e-27
1.027956212e-26
2.806866076e-26
7.963766614e-26
2.352046713e-25
7.410589839e-25
2.652049920e-24
1.264991698e-23
1.582890229e-22
1.095898716e-13
1.199330269e-10
1.774776183e-08
1.117004706e-06
4.923960103e-05
1.819693200e-03
1.753503495e-02
4.772152251e-28
6.385062464e-28
1.076889070e-27
2.173783866e-27
5.000649928e-27
1.256497541e-26
3.345112970e-26
9.294637115e-26
2.702633985e-25
8.437208192e-25
3.019365605e-24
1.468712458e-23
2.131446453e-22
1.858640453e-13
1.580310845e-10
2.118610008e-08
1.260408184e-06
5.357225444e-05
1.906546373e-03
1.769692642e-02
6.465087192e-28
8.550554056e-28
1.413500730e-27
2.782064498e-27
6.227899408e-27
1.524026751e-26
3.962688434e-26
1.079826706e-25
3.094846815e-25
9.582683303e-25
3.432839923e-24
1.706637025e-23
2.981119997e-22
3.031865396e-13
2.056519893e-10
2.511021130e-08
1.415409950e-06
5.807152216e-05
1.991640527e-03
1.784295444e-02
8.629155063e-28
1.129050505e-27
1.832021759e-27
3.522141817e-27
7.687258326e-27
1.835365408e-26
4.668259346e-26
1.249199993e-25
3.532790215e-25
1.085961091e-24
3.898422186e-24
1.985512067e-23
4.416279378e-22
4.785728884e-13
2.645977204e-10
2.956615223e-08
1.582498609e-06
6.273710239e-05
2.075020790e-03
1.797484028e-02
1.136062488e-27
1.471647199e-27
2.346958542e-27
4.414691225e-27
9.410516647e-27
2.195757065e-26
5.471194459e-26
1.439465142e-25
4.020957885e-25
1.228199258e-24
4.422942683e-24
2.313743350e-23
7.193628572e-22
7.343795824e-13
3.369087915e-10
3.460287793e-08
1.762181622e-06
6.756966348e-05
2.156741833e-03
1.809413164e-02
1.476864690e-27
1.895402534e-27
2.974488218e-27
5.482520925e-27
1.143237688e-26
2.610875268e-26
6.381648103e-26
1.652672786e-25
4.564278964e-25
1.386547506e-24
5.014284165e-24
2.701904171e-23
1.401872231e-21
1.099534752e-12
4.248962018e-10
4.027252377e-08
1.954986510e-06
7.257000717e-05
2.236885044e-03
1.820222991e-02
1.897596502e-27
2.414369622e-27
3.732552287e-27
6.750668009e-27
1.379056943e-26
3.086875199e-26
7.410600297e-26
1.891035844e-25
5.168148054e-25
1.562748264e-24
5.681520203e-24
3.163445129e-23
4.220550110e-21
1.610953208e-12
5.311596547e-10
4.663032886e-08
2.161493668e-06
7.774037248e-05
2.315544196e-03
1.830040133e-02
2.411989359e-27
3.044191755e-27
4.640941673e-27
8.246532172e-27
1.652617877e-26
3.630422255e-26
8.569918664e-26
2.156979972e-25
5.838516605e-25
1.758753431e-24
6.435204501e-24
3.715691245e-23
1.099359381e-19
2.315195564e-12
6.586175777e-10
5.373515816e-08
2.382284421e-06
8.308309066e-05
2.392807987e-03
1.838980107e-02
3.035308542e-27
3.802185638e-27
5.721458815e-27
1.000006008e-26
1.968375438e-26
4.248707309e-26
9.872501737e-26
2.453126153e-25
6.581902588e-25
1.976752231e-24
7.287577408e-24
4.381257616e-23
4.630956883e-17
3.270312513e-12
8.105279576e-10
6.164942321e-08
2.617998749e-06
8.860148417e-05
2.468793914e-03
1.847148582e-02
3.784454816e-27
4.707443913e-27
6.997958194e-27
1.204383786e-26
2.331158419e-26
4.949526163e-26
1.133224256e-25
2.782346097e-25
7.405500321e-25
2.219193724e-24
8.252956409e-24
5.190180176e-23
3.046582473e-16
4.548038172e-12
9.905342966e-10
7.043949115e-08
2.869294110e-06
9.429954337e-05
2.543610338e-03
1.854640113e-02
4.678079514e-27
5.780972578e-27
8.496588171e-27
1.441329964e-26
2.746189661e-26
5.741295826e-26
1.296426046e-25
3.147749351e-25
8.317224514e-25
2.488834933e-24
9.348092271e-24
6.183031957e-23
9.960955060e-16
6.236140247e-12
1.202680375e-09
8.017637121e-08
3.136886276e-06
1.001816688e-04
2.617375121e-03
1.861542834e-02
5.736641539e-27
7.045744617e-27
1.024578242e-26
1.714696828e-26
3.219136603e-26
6.633116394e-26
1.478486129e-25
3.552744011e-25
9.325815644e-25
2.788794236e-24
1.059274902e-23
7.415888752e-23
2.472349628e-15
8.441186690e-12
1.451446622e-09
9.093533130e-08
3.421518089e-06
1.062532556e-04
2.690199815e-03
1.867936436e-02
6.982564837e-27
8.526896204e-27
1.227652053e-26
2.028647001e-26
3.756098364e-26
7.634825015e-26
1.681180152e-25
4.001036048e-25
1.044092035e-24
3.122568643e-24
1.201030197e-23
8.968137228e-23
5.273973872e-15
1.129163483e-11
1.741804755e-09
1.027957981e-07
3.723990201e-06
1.125199632e-04
2.762206024e-03
1.873891559e-02
8.440344905e-27
1.025177637e-26
1.462247669e-26
2.387698820e-26
4.363681986e-26
8.757047638e-26
1.906424326e-25
4.496683738e-25
1.167323841e-24
3.494139891e-24
1.362849248e-23
1.095573050e-22
1.020298247e-14
1.494131935e-11
2.079242018e-09
1.158433460e-07
4.045123925e-06
1.189877014e-04
2.833505853e-03
1.879473481e-02
1.013664723e-26
1.225015906e-26
1.732010521e-26
2.796731615e-26
5.049021094e-26
1.001125306e-25
2.156305100e-25
5.044119484e-25
1.303456436e-24
3.908001666e-24
1.548053132e-23
1.355401196e-22
1.841665443e-14
1.957312968e-11
2.469811484e-09
1.301685530e-07
4.385815337e-06
1.256637868e-04
2.904221795e-03
1.884741749e-02
1.210049093e-26
1.455437049e-26
2.040894397e-26
3.261027914e-26
5.819820756e-26
1.140987313e-25
2.433085316e-25
5.648188554e-25
1.453804885e-24
4.369272664e-24
1.760634719e-23
1.704008454e-22
3.154451457e-14
2.540349775e-11
2.920138101e-09
1.458670889e-07
4.746997375e-06
1.325557664e-04
2.974449772e-03
1.889747729e-02
1.436332646e-26
1.719939189e-26
2.393172886e-26
3.786267810e-26
6.684371907e-26
1.296631357e-25
2.739217467e-25
6.314198375e-25
1.619824109e-24
4.883791776e-24
2.005432877e-23
2.187654624e-22
5.183673740e-14
3.268688609e-11
3.437562057e-09
1.630416554e-07
5.129643969e-06
1.396709276e-04
3.044301448e-03
1.894542655e-02
1.695930033e-26
2.022313250e-26
2.793459067e-26
4.378608455e-26
7.651665439e-26
1.469510875e-25
3.077374296e-25
7.047980037e-25
1.803134088e-24
5.458208550e-24
2.288336463e-23
2.889057575e-22
8.234496427e-14
4.172135373e-11
4.030073376e-09
1.818007240e-07
5.534822771e-06
1.470184739e-04
3.113885531e-03
1.899169279e-02
1.992529300e-26
2.366658543e-26
3.246741177e-26
5.044685263e-26
8.731381610e-26
1.661195028e-25
3.450453228e-25
7.855909903e-25
2.005540658e-24
6.100169557e-24
2.616596280e-23
3.970190036e-22
1.271441038e-13
5.285456217e-11
4.706461924e-09
2.022609297e-07
5.963612384e-06
1.546074188e-04
3.183293621e-03
1.903665626e-02
2.330121994e-26
2.757398976e-26
3.758404572e-26
5.791640253e-26
9.933943013e-26
1.873382696e-25
3.861618654e-25
8.745006305e-25
2.229061367e-24
6.818444387e-24
2.999193083e-23
5.790020688e-22
1.916020403e-13
6.648870288e-11
5.476305773e-09
2.245432900e-07
6.417176495e-06
1.624462252e-04
3.252627734e-03
1.908066722e-02
2.713013302e-26
3.199310325e-26
4.334244347e-26
6.627201671e-26
1.127065338e-25
2.107912312e-25
4.314309357e-25
9.722982901e-25
2.475939422e-24
7.623150056e-24
3.447382564e-23
9.300693914e-22
2.827006445e-13
8.308989275e-11
6.350108485e-09
2.487802686e-07
6.896719610e-06
1.705456843e-04
3.321972737e-03
1.912405132e-02
3.145861356e-26
3.697543959e-26
4.980517635e-26
7.559669484e-26
1.275368072e-25
2.366781985e-25
4.812277370e-25
1.079833936e-24
2.748703757e-24
8.525985005e-24
3.975392222e-23
1.786837336e-21
4.094210883e-13
1.031934956e-10
7.339273669e-09
2.751097640e-07
7.403568429e-06
1.789151825e-04
3.391413866e-03
1.916711008e-02
3.633673588e-26
4.257656723e-26
5.703974954e-26
8.598003460e-26
1.439615637e-25
2.652150128e-25
5.359606612e-25
1.198041588e-24
3.050178506e-24
9.540514975e-24
4.601481202e-23
5.224518318e-21
5.832065591e-13
1.274152229e-10
8.456272760e-09
3.036792883e-07
7.939029184e-06
1.875665733e-04
3.461033381e-03
1.921010162e-02
4.181853806e-26
4.885631965e-26
6.511870520e-26
9.751897623e-26
1.621229722e-25
2.966356749e-25
5.960761117e-25
1.327954985e-24
3.383535631e-24
1.068260588e-23
5.349368307e-23
9.755410784e-20
8.184819331e-13
1.564570547e-10
9.714610780e-09
3.346438680e-07
8.504566399e-06
1.965108166e-04
3.530921358e-03
1.925327687e-02
4.796226306e-26
5.587903306e-26
7.412025839e-26
1.103174952e-25
1.821748637e-25
3.311947995e-25
6.620621140e-25
1.470714869e-24
3.752364979e-24
1.197076052e-23
6.250297739e-23
2.855194165e-17
1.133302046e-12
1.911210981e-10
1.112904624e-08
3.681714708e-07
9.101635931e-06
2.057590383e-04
3.601148037e-03
1.929685447e-02
5.483054324e-26
6.371435656e-26
8.412887474e-26
1.244881182e-25
2.042828311e-25
3.691685223e-25
7.344522137e-25
1.627583883e-24
4.160690750e-24
1.342675796e-23
7.346377001e-23
1.900741536e-16
1.550051888e-12
2.323166765e-10
1.271552093e-08
4.044385780e-07
9.731839945e-06
2.153244926e-04
3.671782599e-03
1.934100652e-02
6.249091615e-26
7.243686782e-26
9.523524484e-26
1.401520500e-25
2.286262884e-25
4.108559678e-25
8.138297383e-25
1.799961637e-24
4.613090519e-24
1.507632253e-23
8.695288579e-23
6.103894012e-16
2.096327592e-12
2.810757202e-10
1.449142600e-08
4.436293460e-07
1.039684470e-05
2.252204694e-04
3.742895525e-03
1.938592364e-02
7.101602445e-26
8.212717404e-26
1.075374478e-25
1.574401976e-25
2.553999159e-25
4.565840792e-25
9.008351544e-25
1.989398184e-24
5.114743732e-24
1.694999338e-23
1.037820668e-22
1.481203552e-15
2.805887281e-12
3.385628511e-10
1.647546274e-08
4.859442527e-07
1.109834894e-05
2.354575774e-04
3.814556788e-03
1.943175045e-02
8.048422974e-26
9.287177922e-26
1.211407124e-25
1.764936879e-25
2.848134695e-25
5.067073912e-25
9.961684035e-25
2.197613789e-24
5.671512947e-24
1.908421932e-23
1.251257039e-22
3.089437854e-15
3.719752119e-12
4.060932473e-10
1.868801167e-08
5.315920999e-07
1.183821213e-05
2.460522900e-04
3.886815019e-03
1.947860375e-02
9.097947999e-26
1.047642253e-25
1.361586545e-25
1.974652189e-25
3.170947168e-25
5.616122533e-25
1.100601558e-24
2.426530435e-24
6.290121610e-24
2.152284537e-23
1.527433494e-22
5.852350179e-15
4.887542117e-12
4.851411138e-10
2.115103160e-08
5.807960798e-07
1.261836520e-05
2.570168361e-04
3.959724648e-03
1.952660525e-02
1.025926172e-25
1.179048512e-25
1.527141939e-25
2.205193085e-25
3.524912159e-25
6.217198228e-25
1.214980036e-24
2.678281940e-24
6.978226404e-24
2.431877939e-23
1.893829689e-22
1.036227255e-14
6.368848387e-12
5.773684649e-10
2.388836235e-08
6.337952119e-07
1.344077891e-05
2.683662275e-04
4.033357596e-03
1.957587100e-02
1.154213777e-25
1.324020396e-25
1.709392036e-25
2.458338497e-25
3.912699557e-25
6.874882501e-25
1.340237305e-24
2.955256035e-24
7.744599063e-24
2.753656289e-23
2.395596591e-22
1.744331656e-14
8.234866744e-12
6.846244359e-10
2.692553486e-08
6.908341953e-07
1.430761432e-05
2.801155950e-04
4.107751457e-03
1.962650910e-02
1.295705369e-25
1.483726879e-25
1.909760485e-25
2.736017107e-25
4.337211165e-25
7.594204997e-25
1.477395767e-24
3.260119807e-24
8.599330563e-24
3.125547659e-23
3.111899854e-22
2.822272558e-14
1.057043339e-11
8.089860567e-10
3.029032413e-08
7.521842078e-07
1.522102899e-05
2.922799347e-04
4.182967758e-03
1.967863546e-02
1.451535192e-25
1.659418915e-25
2.129789813e-25
3.040309510e-25
4.801611887e-25
8.380626537e-25
1.627590419e-24
3.595863651e-24
9.554048406e-24
3.557369691e-23
4.193623035e-22
4.421838331e-14
1.347583289e-11
9.527620742e-10
3.401250560e-08
8.181213782e-07
1.618342693e-05
3.048766004e-04
4.259047907e-03
1.973232243e-02
1.622923263e-25
1.852460199e-25
2.371140714e-25
3.373467077e-25
5.309328974e-25
9.240136977e-25
1.792071182e-24
3.965840917e-24
1.062221347e-23
4.061414520e-23
5.962510574e-22
6.744707144e-14
1.706935985e-11
1.118521382e-09
3.812427342e-08
8.889446979e-07
1.719715631e-05
3.179219017e-04
4.336052326e-03
1.978767262e-02
1.811181346e-25
2.064305488e-25
2.635606044e-25
3.737931608e-25
5.864083904e-25
1.017930447e-24
1.972217914e-24
4.373827585e-24
1.181949868e-23
4.653237012e-23
9.223202712e-22
1.005570343e-13
2.149003630e-11
1.309128380e-09
4.266026275e-08
9.649723709e-07
1.826491127e-05
3.314333500e-04
4.414019328e-03
1.984472249e-02
2.017730192e-25
2.296536724e-25
2.925122257e-25
4.136346431e-25
6.469935826e-25
1.120529794e-24
2.169566075e-24
4.824073769e-24
1.316412153e-23
5.352767230e-23
1.654784420e-21
1.469849296e-13
2.690021460e-11
1.527737178e-09
4.765765713e-08
1.046531601e-06
1.938929594e-05
3.454272470e-04
4.492983760e-03
1.990351865e-02
2.244098012e-25
2.550853140e-25
3.241793375e-25
4.571584798e-25
7.131305336e-25
1.232599113e-24
2.385811742e-24
5.321383706e-24
1.467744162e-23
6.185890520e-23
4.070910604e-21
2.111489614e-13
3.348913540e-11
1.777854876e-09
5.315643105e-08
1.133980879e-06
2.057315850e-05
3.599235870e-04
4.572992436e-03
1.996412227e-02
2.491928655e-25
2.829098683e-25
3.587876086e-25
5.046749070e-25
7.853027873e-25
1.355004832e-24
2.622837958e-24
5.871205809e-24
1.638465098e-23
7.186806323e-23
2.817161895e-20
2.986773264e-13
4.147632196e-11
2.063371491e-09
5.919984107e-08
1.227691762e-06
2.181946026e-05
3.749404402e-04
4.654077018e-03
2.002655980e-02
2.763007187e-25
3.133251888e-25
3.965835691e-25
5.565219981e-25
8.640333798e-25
1.488696668e-24
2.882744054e-24
6.479712657e-24
1.831548124e-23
8.401514495e-23
8.959751722e-18
4.166755239e-13
5.111624573e-11
2.388538170e-09
6.583395729e-08
1.328055716e-06
2.313125263e-05
3.904957919e-04
4.736262134e-03
2.009086203e-02
3.059259693e-25