/*--------------------------------*- C++ -*----------------------------------*\
| =========                 |                                                 |
| \\      /  F ield         | OpenFOAM: The Open Source CFD Toolbox           |
|  \\    /   O peration     | Version:  5.x                                   |
|   \\  /    A nd           | Web:      www.OpenFOAM.org                      |
|    \\/     M anipulation  |                                                 |
\*---------------------------------------------------------------------------*/
FoamFile
{
    version     2.0;
    format      ascii;
    class       volScalarField;
    location    "3.5";
    object       OH;
}
// * * * * * * * * * * * * * * * * * * * * * * * * * * * * * * * * * * * * * //

dimensions      [0 0 0 0 0 0 0];

internalField   nonuniform List<scalar>
51080
(
0.000000000e+00
0.000000000e+00
0.000000000e+00
0.000000000e+00
0.000000000e+00
0.000000000e+00
0.000000000e+00
0.000000000e+00
0.000000000e+00
0.000000000e+00
2.321894894e-27
5.692564913e-27
1.383438812e-26
4.004982957e-26
1.517122540e-25
7.653007781e-25
5.562061473e-24
7.049160703e-23
2.502806853e-21
6.578790564e-19
0.000000000e+00
0.000000000e+00
0.000000000e+00
0.000000000e+00
0.000000000e+00
0.000000000e+00
0.000000000e+00
0.000000000e+00
1.363679875e-27
2.956640452e-27
7.261899686e-27
1.781700958e-26
5.298765011e-26
2.120099265e-25
1.118361869e-24
8.510958487e-24
1.118175509e-22
3.466245087e-21
4.052230037e-19
8.100030645e-17
0.000000000e+00
0.000000000e+00
0.000000000e+00
0.000000000e+00
0.000000000e+00
0.000000000e+00
0.000000000e+00
1.717489415e-27
3.671052807e-27
9.006848235e-27
2.212894638e-26
6.543137108e-26
2.593628169e-25
1.329133736e-24
9.540880044e-24
1.125814105e-22
2.772369574e-21
1.911630066e-19
2.311680761e-17
9.772636113e-16
0.000000000e+00
0.000000000e+00
0.000000000e+00
0.000000000e+00
0.000000000e+00
1.167013289e-27
2.143280194e-27
4.390855969e-27
1.009756453e-26
2.609536485e-26
7.511304897e-26
2.899511313e-25
1.415730279e-24
9.276921571e-24
9.611321556e-23
1.868796520e-21
8.658059495e-20
7.512151489e-18
3.303383453e-16
4.758964749e-15
0.000000000e+00
0.000000000e+00
0.000000000e+00
0.000000000e+00
1.552712854e-27
2.741957053e-27
5.441615028e-27
1.225098773e-26
3.174113455e-26
8.342224775e-26
3.063956695e-25
1.399167923e-24
8.305391634e-24
7.503281522e-23
1.169782493e-21
3.855379693e-20
2.485804439e-18
1.157020743e-16
1.878804996e-15
1.529860715e-14
0.000000000e+00
1.105166556e-27
1.448422026e-27
2.143265000e-27
3.580538017e-27
6.775911036e-27
1.462824824e-26
3.644687419e-26
9.215692403e-26
3.121564070e-25
1.314967951e-24
7.040899948e-24
5.546073575e-23
7.038145198e-22
1.713465761e-20
8.214962519e-19
3.902286210e-17
7.512490228e-16
6.540000075e-15
4.014135782e-14
1.973477433e-27
2.316072863e-27
3.129980522e-27
4.842203099e-27
8.575173336e-27
1.745047472e-26
4.114360424e-26
9.876078111e-26
3.091085139e-25
1.191788855e-24
5.747250071e-24
3.951063344e-23
4.133512850e-22
7.639048441e-21
2.713829712e-19
1.229274214e-17
2.860242771e-16
2.847612527e-15
1.741719949e-14
9.696623076e-14
4.170387051e-27
4.977304213e-27
6.942345331e-27
1.124281817e-26
2.113948269e-26
4.635622482e-26
1.042015587e-25
2.984208343e-25
1.052361704e-24
4.572015384e-24
2.747267696e-23
2.394301778e-22
3.432850710e-21
9.045777441e-20
3.605014757e-18
9.952077350e-17
1.194616203e-15
7.874896083e-15
4.001281636e-14
2.398570732e-13
8.974214064e-27
1.089275082e-26
1.568289832e-26
2.659171848e-26
5.310089252e-26
1.096249531e-25
2.817380487e-25
8.981477508e-25
3.640381955e-24
1.895241523e-23
1.383333473e-22
1.565508706e-21
3.080141607e-20
1.003183390e-18
3.083610545e-17
4.630531320e-16
3.498577493e-15
1.802121662e-14
8.562217631e-14
7.401115921e-13
1.952505881e-26
2.408728184e-26
3.577123117e-26
6.346818024e-26
1.180488933e-25
2.695221412e-25
7.777569072e-25
2.819211358e-24
1.298211382e-23
8.029118416e-23
7.294318171e-22
1.085105651e-20
2.740124975e-19
8.466652047e-18
1.599780554e-16
1.464443369e-15
8.196755794e-15
3.676883413e-14
1.821829301e-13
2.609307236e-09
4.270646366e-26
5.331145250e-26
8.135915979e-26
1.328663751e-25
2.670110593e-25
6.893285559e-25
2.214624284e-24
8.926742624e-24
4.714699595e-23
3.494180173e-22
3.998621547e-21
7.624862783e-20
2.110152459e-18
4.792439800e-17
5.562633925e-16
3.592252710e-15
1.662401048e-14
7.028461537e-14
4.209623735e-13
1.200727820e-07
9.665132229e-26
1.164936262e-25
1.602918673e-25
2.809040882e-25
6.454237922e-25
1.806101354e-24
6.315943855e-24
2.844204676e-23
1.737545060e-22
1.556856051e-21
2.230225534e-20
5.022992977e-19
1.235739085e-17
1.850129185e-16
1.459702440e-15
7.437478420e-15
3.066048650e-14
1.309104354e-13
1.401996482e-12
9.635653794e-07
1.694781182e-25
2.101727582e-25
3.276393260e-25
6.451465510e-25
1.562040968e-24
4.697725997e-24
1.797436760e-23
9.097910001e-23
6.477100260e-22
7.026136863e-21
1.214558525e-19
2.821831931e-18
5.238296962e-17
5.298721170e-16
3.155323408e-15
1.370669563e-14
5.315920882e-14
2.474092248e-13
7.766299588e-09
4.318708823e-06
3.301349658e-25
4.330937822e-25
7.176267713e-25
1.471538253e-24
3.760090027e-24
1.214629966e-23
5.100865713e-23
2.916890535e-22
2.428878770e-21
3.147101524e-20
6.100574461e-19
1.257165557e-17
1.657512964e-16
1.222138057e-15
5.953889504e-15
2.327505604e-14
8.880044950e-14
5.050954235e-13
1.115364528e-07
1.369481607e-05
7.036443494e-25
9.301350969e-25
1.569050540e-24
3.337489350e-24
8.993347833e-24
3.122264550e-23
1.442905800e-22
9.350987445e-22
9.074655491e-21
1.356663434e-19
2.662976883e-18
4.356680290e-17
4.161592909e-16
2.412827404e-15
1.018801835e-14
3.728351564e-14
1.459208300e-13
1.360448578e-12
6.060539358e-07
3.437079619e-05
1.479077469e-24
1.975593221e-24
3.406559646e-24
7.516921727e-24
2.136330719e-23
7.979140151e-23
4.065301607e-22
2.984846324e-21
3.327824364e-20
5.425466524e-19
9.692930045e-18
1.203781455e-16
8.780759914e-16
4.252685362e-15
1.622020669e-14
5.729900423e-14
2.409281271e-13
2.454740842e-09
2.145027666e-06
7.290592490e-05
3.076666754e-24
4.157097592e-24
7.337420135e-24
1.680471330e-23
5.039782728e-23
2.026925070e-22
1.138937336e-21
9.422437931e-21
1.174048843e-19
1.941885650e-18
2.911549945e-17
2.764954207e-16
1.627309469e-15
6.887528186e-15
2.445948675e-14
8.557925066e-14
4.111597163e-13
3.683894724e-08
5.800583129e-06
1.363304456e-04
6.344372113e-24
8.675490333e-24
1.568300332e-23
3.729673313e-23
1.180912437e-22
5.115840963e-22
3.163871218e-21
2.913223690e-20
3.896807568e-19
6.065611686e-18
7.326361719e-17
5.497244120e-16
2.734941337e-15
1.045828577e-14
3.538575517e-14
1.255335864e-13
7.672849577e-13
1.773308598e-07
1.299143751e-05
2.312299269e-04
1.298488244e-23
1.797276641e-23
3.328480637e-23
8.221660577e-23
2.748819072e-22
1.281624998e-21
8.676725976e-21
8.714284460e-20
1.191020305e-18
1.639549527e-17
1.586287537e-16
9.776724960e-16
4.264614357e-15
1.510374826e-14
4.958239600e-14
1.825792475e-13
1.978030338e-12
5.705827540e-07
2.530829569e-05
3.628375703e-04
2.640370970e-23
3.699471639e-23
7.019529540e-23
1.800983100e-22
6.355545150e-22
3.181279114e-21
2.335222267e-20
2.488340063e-19
3.297558664e-18
3.860465826e-17
3.039417874e-16
1.594744984e-15
6.272125965e-15
2.096479899e-14
6.778090139e-14
2.658882856e-13
1.962488241e-09
1.439777828e-06
4.430229263e-05
5.341574751e-04
5.338969406e-23
7.572298451e-23
1.472009108e-22
3.921660744e-22
1.458851222e-21
7.803243603e-21
6.122648339e-20
6.696314893e-19
8.205773938e-18
8.041668049e-17
5.281386937e-16
2.430704545e-15
8.806267474e-15
2.818932062e-14
9.092293397e-14
3.924240270e-13
1.803743485e-08
3.067703921e-06
7.129533000e-05
7.451003134e-04
1.074378450e-22
1.542371452e-22
3.070996215e-22
8.489144535e-22
3.320851518e-21
1.884474157e-20
1.551047195e-19
1.679729010e-18
1.836828093e-17
1.509530561e-16
8.488598162e-16
3.510388673e-15
1.191036682e-14
3.693769806e-14
1.202510673e-13
5.982351960e-13
6.661959663e-08
5.764130252e-06
1.072432578e-04
9.916419034e-04
2.152978278e-22
3.127929124e-22
6.375824855e-22
1.826174227e-21
7.483613679e-21
4.460304582e-20
3.766631897e-19
3.900262554e-18
3.725780899e-17
2.598933545e-16
1.281622160e-15
4.854061207e-15
1.562392847e-14
4.738887548e-14
1.574458913e-13
9.816042607e-13
1.781728543e-07
9.828174314e-06
1.526622527e-04
1.265176111e-03
4.298271968e-22
6.317775250e-22
1.317235384e-21
3.900771558e-21
1.665474650e-20
1.029272420e-19
8.703753810e-19
8.364195028e-18
6.922338033e-17
4.167420055e-16
1.839534285e-15
6.478169808e-15
1.998439931e-14
5.974731295e-14
2.048453553e-13
2.013274868e-12
3.930504602e-07
1.551553113e-05
2.076103439e-04
1.552614300e-03
8.550631634e-22
1.270906441e-21
2.706911337e-21
8.262299065e-21
3.649104790e-20
2.303535936e-19
1.902740774e-18
1.660025401e-17
1.192046349e-16
6.303221027e-16
2.533371885e-15
8.396151679e-15
2.502878508e-14
7.425088399e-14
2.658129727e-13
2.446038074e-10
7.581526329e-07
2.301570879e-05
2.717164222e-04
1.837946723e-03
1.694728152e-21
2.545414825e-21
5.528328457e-21
1.732080668e-20
7.843000260e-20
4.974629914e-19
3.921959201e-18
3.064755747e-17
1.924087326e-16
9.085149969e-16
3.371856420e-15
1.061927349e-14
3.079523511e-14
9.118076184e-14
3.454028696e-13
5.014779063e-09
1.322447816e-06
3.244084102e-05
3.442366160e-04
2.105358247e-03
3.344997413e-21
5.072027507e-21
1.120586615e-20
3.585103331e-20
1.647188828e-19
1.031865911e-18
7.615942301e-18
5.299693180e-17
2.940308409e-16
1.258176405e-15
4.362021735e-15
1.315746706e-14
3.732441361e-14
1.108735745e-13
4.516659616e-13
1.677784939e-08
2.132480273e-06
4.382502614e-05
4.241332472e-04
2.342682414e-03
6.569285827e-21
1.004353580e-20
2.250355560e-20
7.305660167e-20
3.367910606e-19
2.048692893e-18
1.395340028e-17
8.648139033e-17
4.290515940e-16
1.685184580e-15
5.509593639e-15
1.601993478e-14
4.466094895e-14
1.337373536e-13
5.985197332e-13
4.010426024e-08
3.228663865e-06
5.713128427e-05
5.101578671e-04
2.543391487e-03
1.282108329e-20
1.973304091e-20
4.467328222e-20
1.461141116e-19
6.679218485e-19
3.885482906e-18
2.419693463e-17
1.341479654e-16
6.021177938e-16
2.194542649e-15
6.819384592e-15
1.921581008e-14
5.285468498e-14
1.602727832e-13
8.131013100e-13
8.053473192e-08
4.642834098e-06
7.226265778e-05
6.009374885e-04
2.706379293e-03
2.482591850e-20
3.839315674e-20
8.744216646e-20
2.859532945e-19
1.280743982e-18
7.035731557e-18
3.988592487e-17
1.991376045e-16
8.174901066e-16
2.790529868e-15
8.295573122e-15
2.275465397e-14
6.196224931e-14
1.911017327e-13
1.159332869e-12
1.442366199e-07
6.397041355e-06
8.907647218e-05
6.950538734e-04
2.834358098e-03
4.759821387e-20
7.380227984e-20
1.683038655e-19
5.459138351e-19
2.368944085e-18
1.217442754e-17
6.279549232e-17
2.845875611e-16
1.079036934e-15
3.476859378e-15
9.942053520e-15
2.664686905e-14
7.204848923e-14
2.270084665e-13
1.847339649e-12
2.376305958e-07
8.503426527e-06
1.073981622e-04
7.911064933e-04
2.931993918e-03
9.015446302e-20
1.398150611e-19
3.176993530e-19
1.013804548e-18
4.220978746e-18
2.017040475e-17
9.488240768e-17
3.935623563e-16
1.390264344e-15
4.256810289e-15
1.176262842e-14
3.090413994e-14
8.318791244e-14
2.689972466e-13
4.407128755e-12
3.670323393e-07
1.096495708e-05
1.270336060e-04
8.877763168e-04
3.004520964e-03
1.682859411e-19
2.604039475e-19
5.865359112e-19
1.827249365e-18
7.242541190e-18
3.208389483e-17
1.382275868e-16
5.290108535e-16
1.754353476e-15
5.133379420e-15
1.376122534e-14
3.553971484e-14
9.546681431e-14
3.183807738e-13
6.002180581e-10
5.383646516e-07
1.377672183e-05
1.477815991e-04
9.838670869e-04
3.056945534e-03
3.088449056e-19
4.755921399e-19
1.056450818e-18
3.191302706e-18
1.197402973e-17
4.915063466e-17
1.949838339e-16
6.937427756e-16
2.174222844e-15
6.109387126e-15
1.594208497e-14
4.056875254e-14
1.089850537e-13
3.769152040e-13
3.120368957e-09
7.569402328e-07
1.692737357e-05
1.694425668e-04
1.078339837e-03
3.093642048e-03
5.558870592e-19
8.496793822e-19
1.852663887e-18
5.396486117e-18
1.910037251e-17
7.275678180e-17
2.673333967e-16
8.904234542e-16
2.652573099e-15
7.187565110e-15
1.830982628e-14
4.600863030e-14
1.238590918e-13
4.470182492e-13
7.584047599e-09
1.027335384e-06
2.040077157e-05
1.918238364e-04
1.170316377e-03
3.118244909e-03
9.790193096e-19
1.481830601e-18
3.158651268e-18
8.834873295e-18
2.945195083e-17
1.044095250e-16
3.574529606e-16
1.121582093e-15
3.191941302e-15
8.370688059e-15
2.086969650e-14
5.187918302e-14
1.402246355e-13
5.321402009e-13
1.469055110e-08
1.353330399e-06
2.417732497e-05
2.147454798e-04
1.259087339e-03
3.133674740e-03
1.683882497e-18
2.518595392e-18
5.231244100e-18
1.401191879e-17
4.399735450e-17
1.457058913e-16
4.674913595e-16
1.389619724e-15
3.794757037e-15
9.661586923e-15
2.362753785e-14
5.820299351e-14
1.582408880e-13
6.374336362e-13
2.521678627e-08
1.737928030e-06
2.823555664e-05
2.380473125e-04
1.344151776e-03
3.142287048e-03
2.824295402e-18
4.167401413e-18
8.414372616e-18
2.155265588e-17
6.382945627e-17
1.983061413e-16
5.995556262e-16
1.696826409e-15
4.463377864e-15
1.106324004e-14
2.658990950e-14
6.500578103e-14
1.780944044e-13
7.710540740e-13
3.999551456e-08
2.183387396e-06
3.255299891e-05
2.615848030e-04
1.425145328e-03
3.145885357e-03
4.615040599e-18
6.709650758e-18
1.314973964e-17
3.220154439e-17
9.014791489e-17
2.639069777e-16
7.557000227e-16
2.045403669e-15
5.200134029e-15
1.257885274e-14
2.976426099e-14
7.231671175e-14
2.000061928e-13
9.469437161e-13
5.989764266e-08
2.691304497e-06
3.710718973e-05
2.852313881e-04
1.501840640e-03
3.145854723e-03
7.343992324e-18
1.051189040e-17
1.998309352e-17
4.681677476e-17
1.242393288e-16
3.442249637e-16
9.379286680e-16
2.437474009e-15
6.007349942e-15
1.421182322e-14
3.315884926e-14
8.016883880e-14
2.242387081e-13
1.191594335e-12
8.581531210e-08
3.262707597e-06
4.187607428e-05
3.088790831e-04
1.574134493e-03
3.143263418e-03
1.138228659e-17
1.603371019e-17
2.956565481e-17
6.636028751e-17
1.674582516e-16
4.409794876e-16
1.148191891e-15
2.875118276e-15
6.887399028e-15
1.596585867e-14
3.678295991e-14
8.859937369e-14
2.511059858e-13
1.563661301e-12
1.186492921e-07
3.898145609e-06
4.683878777e-05
3.324358772e-04
1.642002239e-03
3.138890730e-03
1.719112775e-17
2.383165296e-17
4.265100056e-17
9.188456107e-17
2.212093119e-16
5.558817680e-16
1.388391066e-15
3.360370419e-15
7.842721872e-15
1.784497147e-14
4.064693314e-14
9.765049488e-14
2.809871154e-13
2.228613668e-12
1.592993941e-07
4.597824884e-06
5.197653312e-05
3.558335724e-04
1.705582531e-03
3.133394502e-03
2.532504597e-17
3.455894518e-17
6.008768339e-17
1.245184777e-16
2.869322983e-16
6.906292781e-16
1.660390768e-15
3.895251226e-15
8.875806535e-15
1.985353650e-14
4.476217469e-14
1.073696485e-13
3.143435250e-13
3.927024767e-12
2.086539324e-07
5.361628359e-06
5.727177842e-05
3.790141309e-04
1.765023485e-03
3.127206274e-03
3.643102926e-17
4.896125749e-17
8.281007791e-17
1.654529487e-16
3.660880894e-16
8.469007122e-16
1.966014550e-15
4.481780440e-15
9.989293183e-15
2.199626175e-14
4.914137915e-14
1.178104280e-13
3.517435243e-13
2.451563917e-11
2.675890535e-07
6.189231355e-06
6.270838164e-05
4.019297896e-04
1.820479558e-03
3.120651202e-03
5.124432112e-17
6.786983418e-17
1.118262740e-16
2.159273826e-16
4.601500475e-16
1.026351961e-15
2.307062254e-15
5.121988684e-15
1.118592947e-14
2.427830354e-14
5.379853484e-14
1.290333393e-13
3.938966826e-13
8.330430476e-10
3.369598262e-07
7.080174173e-06
6.827227348e-05
4.245457975e-04
1.872163385e-03
3.113971388e-03
7.058171835e-17
9.219201682e-17
1.482068412e-16
2.772171927e-16
5.705939079e-16
1.230621961e-15
2.685318825e-15
5.817938258e-15
1.246861403e-14
2.670527427e-14
5.874910547e-14
1.411067434e-13
4.417005850e-13
2.261954048e-09
4.176031506e-07
8.033903924e-06
7.395120321e-05
4.468386682e-04
1.920308422e-03
3.107342161e-03
9.533239648e-17
1.229015540e-16
1.930728379e-16
3.506244297e-16
6.988954249e-16
1.461330130e-15
3.102553258e-15
6.571728235e-15
1.384040555e-14
2.928319476e-14
6.401007786e-14
1.541082371e-13
4.963159423e-13
4.334297580e-09
5.103402440e-07
9.049845797e-06
7.973457393e-05
4.687936092e-04
1.965163313e-03
3.100879647e-03
1.264489005e-16
1.610275561e-16
2.475861239e-16
4.374679416e-16
8.465236581e-16
1.720077245e-15
3.560536887e-15
7.385503404e-15
1.530452414e-14
3.201865114e-14
6.960012345e-14
1.681260163e-13
5.592702302e-13
7.200741858e-09
6.159685293e-07
1.012743569e-05
8.561334379e-05
4.904032956e-04
2.006964198e-03
3.094676633e-03
1.649370833e-16
2.076448745e-16
3.129375411e-16
5.390776551e-16
1.014941910e-15
2.008452953e-15
4.061044109e-15
8.261495395e-15
1.686445017e-14
3.491878456e-14
7.553989298e-14
1.832601301e-13
6.326306015e-13
1.102901846e-08
7.352746606e-07
1.126610585e-05
9.157943318e-05
5.116598285e-04
2.045907463e-03
3.088714241e-03
2.118465140e-16
2.638647160e-16
3.903422653e-16
6.567876860e-16
1.205605273e-15
2.328042927e-15
4.605871105e-15
9.201988939e-15
1.852381729e-14
3.799124318e-14
8.185203087e-14
1.996256331e-13
7.192776266e-13
1.600300670e-08
8.690310450e-07
1.246542016e-05
9.762785096e-05
5.325773790e-04
2.082295445e-03
3.083156262e-03
2.682614872e-16
3.308265537e-16
4.810293075e-16
7.919364006e-16
1.419961001e-15
2.680423069e-15
5.196832139e-15
1.020937904e-14
2.028650666e-14
4.124437218e-14
8.856155270e-14
2.173540758e-13
8.233878858e-13
2.232217233e-08
1.017998063e-06
1.372503532e-05
1.037542172e-04
5.531711421e-04
2.116373110e-03
3.077935047e-03
3.352943374e-16
4.096904979e-16
5.862412307e-16
9.458584915e-16
1.659448898e-15
3.067175106e-15
5.835770287e-15
1.128613301e-14
2.215668617e-14
4.468722871e-14
9.569573050e-14
2.365973827e-13
9.512917952e-13
3.020131414e-08
1.182922313e-06
1.504455412e-05
1.099533750e-04
5.734407011e-04
2.148272998e-03
3.073041240e-03
4.140782422e-16
5.016329940e-16
7.072235926e-16
1.119891339e-15
1.925506254e-15
3.489885960e-15
6.524575060e-15
1.243484925e-14
2.413874691e-14
4.832952774e-14
1.032850535e-13
2.575312032e-13
1.113185195e-12
3.987039505e-08
1.364545839e-06
1.642371697e-05
1.162225982e-04
5.933965061e-04
2.178174638e-03
3.068480220e-03
5.057617358e-16
6.078402569e-16
8.452289030e-16
1.315363990e-15
2.219571215e-15
3.950154824e-15
7.265172578e-15
1.365824082e-14
2.623740284e-14
5.218183403e-14
1.113628826e-13
2.803607050e-13
1.326789444e-12
5.157437576e-08
1.563599627e-06
1.786238952e-05
1.225595007e-04
6.130555129e-04
2.206267674e-03
3.064239455e-03
6.115049007e-16
7.295062655e-16
1.001509520e-15
1.533611151e-15
2.543076988e-15
4.449591865e-15
8.059557412e-15
1.495915350e-14
2.845768388e-14
5.625558167e-14
1.199661277e-13
3.053265974e-13
1.626282945e-12
6.557312708e-08
1.780830703e-06
1.936051729e-05
1.289630227e-04
6.324344594e-04
2.232719872e-03
3.060302483e-03
7.324735739e-16
8.678304161e-16
1.177318232e-15
1.775959831e-15
2.897467333e-15
4.989844703e-15
8.909771697e-15
1.634057174e-14
3.080495249e-14
6.056309570e-14
1.291356508e-13
3.327135720e-13
2.088156230e-12
8.214114823e-08
2.016965573e-06
2.091814973e-05
1.354324724e-04
6.515524626e-04
2.257680714e-03
3.056649208e-03
8.698424744e-16
1.024014074e-15
1.373911434e-15
2.043744141e-15
3.284195930e-15
5.572571314e-15
9.817943685e-15
1.780568648e-14
3.328495300e-14
6.511784999e-14
1.389171061e-13
3.628609646e-13
2.928532337e-12
1.015675997e-07
2.272748311e-06
2.253547050e-05
1.419675304e-04
6.704261524e-04
2.281289869e-03
3.053259826e-03
1.024787610e-15
1.199262164e-15
1.592546686e-15
2.338298613e-15
3.704718163e-15
6.199478102e-15
1.078626980e-14
1.935775488e-14
3.590376642e-14
6.993431283e-14
1.493607207e-13
3.961774525e-13
5.094140226e-12
1.241558044e-07
2.548918342e-06
2.421270490e-05
1.485691992e-04
6.890757926e-04
2.303673853e-03
3.050110926e-03
1.198490104e-15
1.394783281e-15
1.834478450e-15
2.660961388e-15
4.160519119e-15
6.872313909e-15
1.181701957e-14
2.100034647e-14
3.866801114e-14
7.502828225e-14
1.605230872e-13
4.331605882e-13
2.599554471e-11
1.502240934e-07
2.846226721e-06
2.595021052e-05
1.552377748e-04
7.075190356e-04
2.324941795e-03
3.047183034e-03
1.392131428e-15
1.611785984e-15
2.100973524e-15
3.013085344e-15
4.653098002e-15
7.592850186e-15
1.291260404e-14
2.273711551e-14
4.158465693e-14
8.041697992e-14
1.724669459e-13
4.744224865e-13
5.410352653e-10
1.801043670e-07
3.165417707e-06
2.774837721e-05
1.619747492e-04
7.257746140e-04
2.345200432e-03
3.044453104e-03
1.606896953e-15
1.851481087e-15
2.393292517e-15
3.396027535e-15
5.183979617e-15
8.362934924e-15
1.407547709e-14
2.457203748e-14
4.466125178e-14
8.611892370e-14
1.852630236e-13
5.207294680e-13
1.412037835e-09
2.141440690e-07
3.507267070e-06
2.960769393e-05
1.687813330e-04
7.438612067e-04
2.364542715e-03
3.041901291e-03
1.843980910e-15
2.115090775e-15
2.712719717e-15
3.811161205e-15
5.754711116e-15
9.184462725e-15
1.530826551e-14
2.650920987e-14
4.790583101e-14
9.215437647e-14
1.989904263e-13
5.730528222e-13
2.595875982e-09
2.527037722e-07
3.872543095e-06
3.152880728e-05
1.756595911e-04
7.617960455e-04
2.383054864e-03
3.039509356e-03
2.104574709e-15
2.403834749e-15
3.060532077e-15
4.259888092e-15
6.366897748e-15
1.005939643e-14
1.661366184e-14
2.855307364e-14
5.132704116e-14
9.854569853e-14
2.137390307e-13
6.326515101e-13
4.154507849e-09
2.961585477e-07
4.262016752e-06
3.351238368e-05
1.826113695e-04
7.795973120e-04
2.400812122e-03
3.037256950e-03
2.389881686e-15
2.718950583e-15
3.438028042e-15
4.743611049e-15
7.022148270e-15
1.098977241e-14
1.799455363e-14
3.070827180e-14
5.493414057e-14
1.053167832e-13
2.296105692e-13
7.011892500e-13
6.159173291e-09
3.448982281e-07
4.676491428e-06
3.555903687e-05
1.896390901e-04
7.972814882e-04
2.417885541e-03
3.035127932e-03
2.701114875e-15
3.061677415e-15
3.846526076e-15
5.263777400e-15
7.722138157e-15
1.197770032e-14
1.945390846e-14
3.297978706e-14
5.873717100e-14
1.124943009e-13
2.467202306e-13
7.809298771e-13
8.689294180e-09
3.993278069e-07
5.116775254e-06
3.766966171e-05
1.967447297e-04
8.148634391e-04
2.434337746e-03
3.033106234e-03
3.039493414e-15
3.433274029e-15
4.287352300e-15
5.821852679e-15
8.468589159e-15
1.302536174e-14
2.099489879e-14
3.537289852e-14
6.274675288e-14
1.201070336e-13
2.652002648e-13
8.750425358e-13
1.183295438e-08
4.598649656e-07
5.583693655e-06
3.984511703e-05
2.039309974e-04
8.323602981e-04
2.450229145e-03
3.031175769e-03
3.406254813e-15
3.835015815e-15
4.761864774e-15
6.419349218e-15
9.263280866e-15
1.413505963e-14
2.262085306e-14
3.789320110e-14
6.697454118e-14
1.281867846e-13
2.852024761e-13
9.881382023e-13
1.568680311e-08
5.269433924e-07
6.078045041e-06
4.208622967e-05
2.112004690e-04
8.497874379e-04
2.465607070e-03
3.029323699e-03
3.802644185e-15
4.268187101e-15
5.271441179e-15
7.057785904e-15
1.010802610e-14
1.530916820e-14
2.433524838e-14
4.054666315e-14
7.143291903e-14
1.367686430e-13
3.069027640e-13
1.127251949e-12
2.035688739e-08
6.010094378e-07
6.600713571e-06
4.439403415e-05
2.185555015e-04
8.671569822e-04
2.480519603e-03
3.027535149e-03
4.229936335e-15
4.734101655e-15
5.817480952e-15
7.738756183e-15
1.100474491e-14
1.655019669e-14
2.614179931e-14
4.333969484e-14
7.613531268e-14
1.458908798e-13
3.305045764e-13
1.303749350e-12
2.595865332e-08
6.825259331e-07
7.152531126e-06
4.676950984e-05
2.259994191e-04
8.844850421e-04
2.495010315e-03
3.025799101e-03
4.689415031e-15
5.234098478e-15
6.401425955e-15
8.463890625e-15
1.195540465e-14
1.786074743e-14
2.804437928e-14
4.627904961e-14
8.109623993e-14
1.555962489e-13
3.562473128e-13
1.537444151e-12
3.261733214e-08
7.719728582e-07
7.734387791e-06
4.921385287e-05
2.335345592e-04
9.017847395e-04
2.509114411e-03
3.024105423e-03
5.182396170e-15
5.769538467e-15
7.024756256e-15
9.234854748e-15
1.296202875e-14
1.924355255e-14
3.004714448e-14
4.937199065e-14
8.633148006e-14
1.659317820e-13
3.844125519e-13
1.866565565e-12
4.046839698e-08
8.698356395e-07
8.347156152e-06
5.172795490e-05
2.411638983e-04
9.190656304e-04
2.522868375e-03
3.022442674e-03
5.710214694e-15
6.341815533e-15
7.688976389e-15
1.005339728e-14
1.402676740e-14
2.070147353e-14
3.215445540e-14
5.262627235e-14
9.185782998e-14
1.769498062e-13
4.153363298e-13
2.376341101e-12
4.965763470e-08
9.766248437e-07
8.991763430e-06
5.431320602e-05
2.488900621e-04
9.363419608e-04
2.536300746e-03
3.020802185e-03
6.274252946e-15
6.952358831e-15
8.395646380e-15
1.092129514e-14
1.515183273e-14
2.223755625e-14
3.437095092e-14
5.605020817e-14
9.769391884e-14
1.887084782e-13
4.494207855e-13
3.304720105e-12
6.034160022e-08
1.092857496e-06
9.669107745e-06
5.697071885e-05
2.567166119e-04
9.536222609e-04
2.549439723e-03
3.019175289e-03
6.875906430e-15
7.602639787e-15
9.146380609e-15
1.184040287e-14
1.633952567e-14
2.385496019e-14
3.670151490e-14
5.965261870e-14
1.038596881e-13
2.012725699e-13
4.871563281e-13
5.660142955e-12
7.268837891e-08
1.219074758e-06
1.038014328e-05
5.970175138e-05
2.646457067e-04
9.709196854e-04
2.562308877e-03
3.017554134e-03
7.516616586e-15
8.294166297e-15
9.942825645e-15
1.281267435e-14
1.759227563e-14
2.555700970e-14
3.915135568e-14
6.344305236e-14
1.103768009e-13
2.147153280e-13
5.291452542e-13
2.445174413e-11
8.687660080e-08
1.355822360e-06
1.112579454e-05
6.250746171e-05
2.726809142e-04
9.882429551e-04
2.574932577e-03
3.015930946e-03
8.197868949e-15
9.028480211e-15
1.078669205e-14
1.384009276e-14
1.891263728e-14
2.734724555e-14
4.172601799e-14
6.743171578e-14
1.172692159e-13
2.291182621e-13
5.761349156e-13
4.230164471e-10
1.030972404e-07
1.503671090e-06
1.190705662e-05
6.538935537e-05
2.808245699e-04
1.005600202e-03
2.587330121e-03
3.014298247e-03
8.921183419e-15
9.807210615e-15
1.167977040e-14
1.492475701e-14
2.030323741e-14
2.922938643e-14
4.443139255e-14
7.162958287e-14
1.245625578e-13
2.445737068e-13
6.290780659e-13
1.108068172e-09
1.215521911e-07
1.663197490e-06
1.272488757e-05
6.834880262e-05
2.890799463e-04
1.023002224e-03
2.599517570e-03
3.012651640e-03
9.688139035e-15
1.063199784e-14
1.262388963e-14
1.606883974e-14
2.176685533e-14
3.120731573e-14
4.727372096e-14
7.604848402e-14
1.322853320e-13
2.611862669e-13
6.891982640e-13
2.014904894e-09
1.424564285e-07
1.834999942e-06
1.358032083e-05
7.138695133e-05
2.974501920e-04
1.040458511e-03
2.611511622e-03
3.010983297e-03
1.050036113e-14
1.150457142e-14
1.362098234e-14
1.727461904e-14
2.330644044e-14
3.328521971e-14
5.025970283e-14
8.070107486e-14
1.404685712e-13
2.790749490e-13
7.581105304e-13
3.183133086e-09
1.660369860e-07
2.019686212e-06
1.447433267e-05
7.450541813e-05
3.059376404e-04
1.057971375e-03
2.623327181e-03
3.009290411e-03
1.135954711e-14
1.242669655e-14
1.467301981e-14
1.854446437e-14
2.492503353e-14
3.546747130e-14
5.339639132e-14
8.560096225e-14
1.491459566e-13
2.983756511e-13
8.379951782e-13
4.659503725e-09
1.925329238e-07
2.217887597e-06
1.540798127e-05
7.770552262e-05
3.145456980e-04
1.075553777e-03
2.634973774e-03
3.007567682e-03
1.226741944e-14
1.340024195e-14
1.578207400e-14
1.988087533e-14
2.662586758e-14
3.775871545e-14
5.669143823e-14
9.076302348e-14
1.583552457e-13
3.192451478e-13
9.318890260e-13
6.496570213e-09
2.221973577e-07
2.430236561e-06
1.638230293e-05
8.098879146e-05
3.232773674e-04
1.093208558e-03
2.646461224e-03
3.005810731e-03
1.322580777e-14
1.442711507e-14
1.695033721e-14
2.128644302e-14
2.841238185e-14
4.016387744e-14
6.015291173e-14
9.620312724e-14
1.681376577e-13
3.418636353e-13
1.044173811e-12
8.752711934e-09
2.552953154e-07
2.657403182e-06
1.739839488e-05
8.435691415e-05
3.321350539e-04
1.110943031e-03
2.657802920e-03
3.004015899e-03
1.423660650e-14
1.550932712e-14
1.818004806e-14
2.276389351e-14
3.028812575e-14
4.268813771e-14
6.378954045e-14
1.019385854e-13
1.785387044e-13
3.664415245e-13
1.181447539e-12
1.149246518e-08
2.921041788e-07
2.900044328e-06
1.845729009e-05
8.781104907e-05
3.411222267e-04
1.128762936e-03
2.669003887e-03
3.002177309e-03
1.530174990e-14
1.664898205e-14
1.947355675e-14
2.431611776e-14
3.225686845e-14
4.533710799e-14
6.761048494e-14
1.079880836e-13
1.896089447e-13
3.932254642e-13
1.354210247e-12
1.478696742e-08
3.329174747e-07
3.158858689e-06
1.956012746e-05
9.135314276e-05
3.502409577e-04
1.146672814e-03
2.680072845e-03
3.000293438e-03
1.642329843e-14
1.784821174e-14
2.083336380e-14
2.594612009e-14
3.432265442e-14
4.811661772e-14
7.162577941e-14
1.143719431e-13
2.014044209e-13
4.225061653e-13
1.580367050e-12
1.871408876e-08
3.780392645e-07
3.434544626e-06
2.070799881e-05
9.498449347e-05
3.594950516e-04
1.164679331e-03
2.691014891e-03
2.998358384e-03
1.760338503e-14
1.910934944e-14
2.226205605e-14
2.765705901e-14
3.648970054e-14
5.103293772e-14
7.584607992e-14
1.211121829e-13
2.139876275e-13
4.546303473e-13
1.893391652e-12
2.335886232e-08
4.277887529e-07
3.727817613e-06
2.190205284e-05
9.870681728e-05
3.688862951e-04
1.182786762e-03
2.701838556e-03
2.996371341e-03
1.884421741e-14
2.043472712e-14
2.376234322e-14
2.945227880e-14
3.876244375e-14
5.409277965e-14
8.028276765e-14
1.282328649e-13
2.274288489e-13
4.900149533e-13
2.364426813e-12
2.881395368e-08
4.825006814e-07
4.039426237e-06
2.314344821e-05
1.025219299e-04
3.784189368e-04
1.200999624e-03
2.712546090e-03
2.994326765e-03
2.014814725e-14
2.182686742e-14
2.533706479e-14
3.133528996e-14
4.114562317e-14
5.730320106e-14
8.494827206e-14
1.357601097e-13
2.418061667e-13
5.291669597e-13
3.176854119e-12
3.517957784e-08
5.425211661e-07
4.370098995e-06
2.443333776e-05
1.064311678e-04
3.880949102e-04
1.219319920e-03
2.723140074e-03
2.992224217e-03
2.151760805e-14
2.328836266e-14
2.698926114e-14
3.330982734e-14
4.364425385e-14
6.067176436e-14
8.985579231e-14
1.437225221e-13
2.572077350e-13
5.727097728e-13
4.991455255e-12
4.256420924e-08
6.082117917e-07
4.720605435e-06
2.577289605e-05
1.104365259e-04
3.979172530e-04
1.237753231e-03
2.733625585e-03
2.990061278e-03
2.295512011e-14
2.482198365e-14
2.872202462e-14
3.537976257e-14
4.626371872e-14
6.420660087e-14
9.501954989e-14
1.521515437e-13
2.737337433e-13
6.214229280e-13
1.313038454e-11
5.108486454e-08
6.799469981e-07
5.091748300e-06
2.716338321e-05
1.145396145e-04
4.078889226e-04
1.256301930e-03
2.744003294e-03
2.987834691e-03
2.446338906e-14
2.643056516e-14
3.053872909e-14
3.754924328e-14
4.900956214e-14
6.791631648e-14
1.004549936e-13
1.610814824e-13
2.914972107e-13
6.762957003e-13
2.355619235e-10
6.086708763e-08
7.581199325e-07
5.484292124e-06
2.860599538e-05
1.187420452e-04
4.180121881e-04
1.274966819e-03
2.754273063e-03
2.985543870e-03
2.604524223e-14