/*--------------------------------*- C++ -*----------------------------------*\
| =========                 |                                                 |
| \\      /  F ield         | OpenFOAM: The Open Source CFD Toolbox           |
|  \\    /   O peration     | Version:  5.x                                   |
|   \\  /    A nd           | Web:      www.OpenFOAM.org                      |
|    \\/     M anipulation  |                                                 |
\*---------------------------------------------------------------------------*/
FoamFile
{
    version     2.0;
    format      ascii;
    class       volScalarField;
    location    "3.5";
    object       T;
}
// * * * * * * * * * * * * * * * * * * * * * * * * * * * * * * * * * * * * * //

dimensions      [0 0 0 1 0 0 0];

internalField   nonuniform List<scalar>
51080
(
351.98
352.27
352.81
353.60
354.62
355.89
357.38
359.09
361.03
363.16
754.94
762.27
770.14
780.30
794.11
812.50
837.41
873.09
930.59
1039.14
353.23
353.52
354.05
354.83
355.84
357.07
358.53
360.19
750.70
756.66
764.17
772.28
782.89
797.56
816.85
842.88
879.83
936.08
1028.48
1154.51
354.44
354.72
355.24
356.01
356.99
358.19
359.60
752.28
758.26
765.90
774.16
784.88
799.64
818.81
844.29
879.80
932.04
1012.55
1122.02
1223.59
355.58
355.86
356.37
357.11
358.07
749.31
753.87
759.63
766.81
775.61
786.17
800.77
819.47
843.80
877.30
925.12
996.32
1094.31
1192.40
1271.35
356.66
356.93
357.43
358.14
751.34
755.72
761.34
768.45
777.41
787.17
801.30
819.24
842.21
873.50
917.09
980.29
1068.28
1163.57
1242.67
1308.81
357.67
748.80
750.77
753.73
757.80
763.14
770.00
778.69
788.13
801.44
818.40
839.93
868.94
908.57
964.75
1043.37
1135.01
1215.54
1281.08
1341.39
753.06
754.30
756.67
760.24
765.14
771.58
779.83
788.80
801.27
817.14
837.17
863.93
899.86
949.79
1019.55
1106.02
1188.11
1255.07
1312.82
1372.40
758.98
760.45
763.27
767.52
773.34
780.98
789.32
800.82
815.58
834.11
858.65
891.13
935.45
996.96
1076.70
1159.35
1228.93
1286.80
1340.95
1404.62
765.49
767.21
770.53
775.50
782.32
789.82
800.14
813.63
831.10
853.36
882.57
921.83
975.77
1047.64
1128.85
1201.50
1261.24
1313.74
1367.58
1440.19
772.55
774.54
778.36
784.11
790.59
799.61
811.88
827.79
848.07
874.28
909.00
956.10
1019.65
1096.85
1172.01
1234.84
1287.93
1337.80
1394.40
1485.37
780.10
782.32
786.65
791.83
799.49
810.42
824.70
842.93
866.37
897.03
938.05
993.46
1064.26
1140.07
1206.63
1261.94
1310.90
1360.31
1422.85
1622.68
788.44
790.42
793.85
800.05
809.63
822.12
838.27
859.04
886.01
921.66
969.53
1032.47
1105.97
1175.90
1234.66
1284.71
1331.40
1382.31
1451.80
1741.37
794.45
796.81
801.77
809.61
820.30
834.34
852.53
876.10
906.99
948.10
1002.78
1070.88
1142.32
1205.18
1257.87
1304.42
1350.32
1404.64
1510.95
1844.29
801.85
804.96
810.86
819.56
831.43
847.09
867.48
894.11
929.27
976.07
1036.63
1106.35
1172.85
1229.34
1277.57
1321.95
1368.30
1427.79
1618.31
1933.67
810.63
813.96
820.34
829.88
842.98
860.34
883.10
913.03
952.73
1005.00
1069.51
1137.52
1198.29
1249.63
1294.68
1337.91
1385.84
1450.13
1711.98
2011.41
819.61
823.21
830.14
840.55
854.93
874.10
899.39
932.83
977.12
1034.07
1099.99
1164.19
1219.63
1266.98
1309.83
1352.74
1403.32
1481.40
1793.95
2079.11
828.83
832.72
840.22
851.56
867.28
888.35
916.31
953.40
1002.04
1062.27
1127.20
1186.83
1237.75
1282.08
1323.48
1366.77
1420.94
1566.56
1865.82
2138.14
838.28
842.48
850.59
862.88
880.01
903.09
933.84
974.55
1026.96
1088.72
1150.98
1206.12
1253.36
1295.43
1335.98
1380.26
1438.35
1641.57
1928.93
2189.61
847.98
852.49
861.24
874.53
893.13
918.29
951.87
996.02
1051.26
1112.81
1171.58
1222.70
1267.00
1307.38
1347.55
1393.40
1452.64
1707.84
1984.46
2234.42
857.92
862.76
872.17
886.50
906.62
933.92
970.31
1017.48
1074.39
1134.35
1189.41
1237.09
1279.05
1318.21
1358.41
1406.30
1476.07
1766.53
2033.38
2273.26
868.11
873.29
883.38
898.78
920.47
949.93
988.98
1038.58
1095.91
1153.40
1204.94
1249.73
1289.82
1328.14
1368.69
1418.99
1537.49
1818.61
2076.57
2306.62
878.56
884.09
894.87
911.38
934.67
966.24
1007.69
1058.95
1115.60
1170.20
1218.55
1260.93
1299.54
1337.30
1378.51
1431.35
1592.29
1864.91
2114.74
2334.87
889.27
895.17
906.66
924.29
949.16
982.76
1026.20
1078.28
1133.42
1185.04
1230.58
1270.95
1308.40
1345.84
1387.95
1442.82
1641.31
1906.17
2148.53
2358.22
900.25
906.51
918.74
937.50
963.92
999.34
1044.30
1096.35
1149.44
1198.20
1241.30
1280.00
1316.52
1353.85
1397.08
1451.50
1685.29
1942.99
2178.47
2376.85
911.50
918.13
931.09
950.96
978.85
1015.85
1061.75
1113.07
1163.83
1209.94
1250.93
1288.22
1324.02
1361.42
1405.92
1453.90
1724.83
1975.93
2205.02
2390.99
923.01
930.02
943.70
964.65
993.88
1032.13
1078.39
1128.43
1176.76
1220.48
1259.64
1295.75
1331.00
1368.60
1414.50
1495.81
1760.47
2005.45
2228.56
2401.01
934.79
942.16
956.54
978.50
1008.90
1048.04
1094.09
1142.46
1188.43
1229.99
1267.57
1302.70
1337.53
1375.44
1422.80
1534.10
1792.68
2031.96
2249.46
2407.41
946.80
954.53
969.58
992.46
1023.81
1063.42
1108.78
1155.27
1198.99
1238.64
1274.85
1309.13
1343.67
1382.00
1430.74
1568.92
1821.84
2055.81
2267.99
2410.84
959.03
967.10
982.77
1006.44
1038.49
1078.16
1122.45
1166.97
1208.60
1246.55
1281.55
1315.13
1349.46
1388.31
1438.18
1600.68
1848.31
2077.32
2284.41
2411.95
971.45
979.83
996.05
1020.36
1052.83
1092.18
1135.12
1177.68
1217.39
1253.82
1287.77
1320.74
1354.96
1394.39
1444.76
1629.73
1872.39
2096.76
2298.96
2411.35
984.01
992.66
1009.34
1034.12
1066.73
1105.43
1146.86
1187.50
1225.46
1260.53
1293.57
1326.02
1360.20
1400.27
1449.75
1656.36
1894.35
2114.36
2311.84
2409.53
996.66
1005.54
1022.58
1047.64
1080.09
1117.89
1157.71
1196.54
1232.90
1266.77
1298.99
1331.02
1365.21
1405.97
1451.15
1680.84
1914.42
2130.32
2323.22
2406.90
1009.34
1018.40
1035.67
1060.82
1092.87
1129.56
1167.76
1204.89
1239.81
1272.59
1304.08
1335.75
1370.02
1411.48
1458.14
1703.41
1932.82
2144.84
2333.27
2403.77
1021.98
1031.16
1048.55
1073.58
1105.02
1140.49
1177.09
1212.63
1246.23
1278.04
1308.89
1340.26
1374.64
1416.83
1483.25
1724.27
1949.72
2158.06
2342.14
2400.36
1034.51
1043.75
1061.13
1085.87
1116.52
1150.70
1185.75
1219.84
1252.24
1283.17
1313.45
1344.56
1379.11
1422.00
1506.69
1743.60
1965.28
2170.13
2349.95
2396.84
1046.86
1056.09
1073.34
1097.64
1127.39
1160.24
1193.83
1226.56
1257.88
1288.01
1317.78
1348.69
1383.43
1426.99
1528.56
1761.54
1979.64
2181.18
2356.82
2393.32
1058.97
1068.12
1085.13
1108.86
1137.63
1169.17
1201.37
1232.86
1263.18
1292.59
1321.91
1352.66
1387.62
1431.76
1549.01
1778.26
1992.93
2191.30
2362.86
2389.88
1070.76
1079.79
1096.46
1119.53
1147.27
1177.54
1208.44
1238.79
1268.20
1296.95
1325.87
1356.49
1391.70
1436.29
1568.19
1793.86
2005.26
2200.61
2368.17
2386.57
1082.18
1091.04
1107.30
1129.65
1156.34
1185.39
1215.08
1244.37
1272.95
1301.10
1329.66
1360.18
1395.68
1440.48
1586.21
1808.45
2016.72
2209.17
2372.84
2383.43
1093.20
1101.84
1117.64
1139.22
1164.88
1192.77
1221.33
1249.65
1277.47
1305.08
1333.31
1363.77
1399.56
1444.24
1603.19
1822.14
2027.40
2217.07
2376.94
2380.48
1103.78
1112.18
1127.48
1148.28
1172.93
1199.72
1227.23
1254.66
1281.78
1308.88
1336.83
1367.25
1403.36
1447.36
1619.22
1835.01
2037.38
2224.38
2380.54
2377.73
1113.90
1122.05
1136.82
1156.84
1180.52
1206.28
1232.82
1259.43
1285.89
1312.54
1340.23
1370.64
1407.08
1449.48
1634.38
1847.13
2046.72
2231.16
2383.70
2375.17
1123.57
1131.44
1145.69
1164.94
1187.70
1212.48
1238.13
1263.96
1289.84
1316.07
1343.52
1373.95
1410.72
1449.89
1648.77
1858.58
2055.50
2237.45
2386.49
2372.81
1132.79
1140.38
1154.09
1172.60
1194.48
1218.36
1243.17
1268.30
1293.62
1319.47
1346.72
1377.18
1414.29
1447.62
1662.44
1869.42
2063.75
2243.31
2388.94
2370.65
1141.55
1148.86
1162.06
1179.86
1200.91
1223.94
1247.98
1272.45
1297.27
1322.76
1349.84
1380.35
1417.79
1460.21
1675.46
1879.69
2071.54
2248.78
2391.10
2368.66
1149.89
1156.93
1169.62
1186.74
1207.01
1229.26
1252.57
1276.44
1300.78
1325.95
1352.88
1383.46
1421.22
1475.52
1687.88
1889.46
2078.89
2253.90
2393.01
2366.84
1157.81
1164.59
1176.80
1193.27
1212.82
1234.33
1256.97
1280.27
1304.17
1329.04
1355.84
1386.51
1424.57
1490.23
1699.75
1898.76
2085.86
2258.69
2394.70
2365.18
1165.35
1171.86
1183.62
1199.48
1218.34
1239.17
1261.18
1283.96
1307.46
1332.06
1358.74
1389.52
1427.85
1504.36
1711.12
1907.64
2092.47
2263.20
2396.19
2363.67
1172.51
1178.79
1190.10
1205.39
1223.61
1243.80
1265.23
1287.52
1310.64
1334.99
1361.59
1392.48
1431.04
1517.93
1722.02
1916.12
2098.76
2267.44
2397.52
2362.29
1179.33
1185.37
1196.28
1211.03
1228.65
1248.24
1269.13
1290.96
1313.73
1337.86
1364.38
1395.40
1434.13
1531.00
1732.49
1924.25
2104.76
2271.45
2398.70
2361.04
1185.83
1191.65
1202.16
1216.41
1233.47
1252.51
1272.89
1294.30
1316.74
1340.66
1367.12
1398.28
1437.09
1543.60
1742.57
1932.04
2110.49
2275.24
2399.75
2359.90
1192.02
1197.63
1207.78
1221.56
1238.09
1256.61
1276.52
1297.53
1319.67
1343.40
1369.82
1401.13
1439.90
1555.76
1752.29
1939.53
2115.97
2278.83
2400.69
2358.87
1197.93
1203.35
1213.15
1226.48
1242.53
1260.56
1280.03
1300.66
1322.52
1346.08
1372.47
1403.96
1442.50
1567.52
1761.66
1946.74
2121.22
2282.24
2401.53
2357.93
1203.58
1208.81
1218.29
1231.21
1246.80
1264.37
1283.42
1303.71
1325.31
1348.72
1375.10
1406.75
1444.85
1578.89
1770.72
1953.70
2126.27
2285.49
2402.28
2357.07
1208.98
1214.04
1223.22
1235.75
1250.91
1268.05
1286.72
1306.68
1328.04
1351.31
1377.69
1409.52
1446.82
1589.91
1779.49
1960.41
2131.13
2288.59
2402.96
2356.30
1214.16
1219.06
1227.95
1240.11
1254.87
1271.61
1289.92
1309.58
1330.71
1353.85
1380.25
1412.26
1448.28
1600.60
1787.98
1966.90
2135.81
2291.56
2403.57
2355.59
1219.12
1223.87
1232.49
1244.31
1258.69
1275.06
1293.02
1312.40
1333.32
1356.36
1382.78
1414.98
1448.95
1610.99
1796.22
1973.19
2140.33
2294.40
2404.12
2354.94
1223.89
1228.49
1236.87
1248.36
1262.39
1278.41
1296.05
1315.16
1335.89
1358.83
1385.29
1417.67
1448.44
1621.08
1804.22
1979.28
2144.70
2297.12
2404.62
2354.35
1228.47
1232.94
1241.08
1252.28
1265.97
1281.66
1299.00
1317.86
1338.41
1361.27
1387.78
1420.33
1446.50
1630.90
1812.00
1985.19
2148.93
2299.75
2405.07
2353.81
1232.88
1237.22
1245.14
1256.06
1269.43
1284.81
1301.87
1320.50
1340.89
1363.68
1390.25
1422.97
1455.06
1640.46
1819.57
1990.94
2153.03
2302.27
2405.48
2353.31
1237.13
1241.35
1249.07
1259.71
1272.80
1287.88
1304.68
1323.09
1343.33
1366.07
1392.70
1425.58
1466.44
1649.78
1826.94
1996.54
2157.01
2304.71
2405.85
2352.84
1241.23
1245.34
1252.86
1263.26
1276.07
1290.88
1307.42
1325.63
1345.73
1368.42
1395.14
1428.15
1477.61
1658.88
1834.13
2001.99
2160.88
2307.06
2406.19
2352.42
1245.19
1249.20
1256.53
1266.69
1279.24
1293.79
1310.10
1328.12
1348.10
1370.76
1397.56
1430.67
1488.53
1667.75
1841.15
2007.30
2164.66
2309.34
2406.50
2352.02
1249.02
1252.93
1260.09
1270.03
1282.33
1296.64
1312.73
1330.57
1350.44
1373.07
1399.98
1433.15
1499.20
1676.43
1848.00
2012.49
2168.33
2311.56
2406.79
2351.64
1252.73
1256.54
1263.54
1273.27
1285.34
1299.42
1315.31
1332.98
1352.75
1375.37
1402.37
1435.56
1509.63
1684.91
1854.70
2017.55
2171.92
2313.70
2407.04
2351.29
1256.32
1260.05
1266.89
1276.43
1288.28
1302.14
1317.83
1335.36
1355.03
1377.65
1404.76
1437.88
1519.84
1693.21
1861.25
2022.51
2175.42
2315.79
2407.28
2350.96
1259.80
1263.45
1270.15
1279.50
1291.15
1304.81
1320.31
1337.70
1357.29
1379.91
1407.14
1440.11
1529.83
1701.33
1867.66
2027.36
2178.85
2317.83
2407.49
2350.64
1263.19
1266.75
1273.32
1282.49
1293.94
1307.41
1322.75
1340.00
1359.52
1382.16
1409.51
1442.20
1539.61
1709.29
1873.95
2032.10
2182.20
2319.81
2407.69
2350.33
1266.47
1269.97
1276.40
1285.41
1296.68
1309.97
1325.14
1342.28
1361.74
1384.39
1411.87
1444.12
1549.20
1717.09
1880.11
2036.76
2185.49
2321.75
2407.87
2350.03
1269.67
1273.09
1279.41
1288.26
1299.36
1312.48
1327.50
1344.52
1363.93
1386.62
1414.23
1445.80
1558.59
1724.74
1886.15
2041.33
2188.71
2323.64
2408.03
2349.75
1272.78
1276.14
1282.34
1291.04
1301.98
1314.94
1329.82
1346.74
1366.10
1388.84
1416.57
1447.16
1567.81
1732.24
1892.08
2045.81
2191.87
2325.49
2408.18
2349.46
1275.82
1279.11
1285.20
1293.77
1304.55
1317.36
1332.11
1348.94
1368.26
1391.04
1418.90
1448.06
1576.86
1739.61
1897.90
2050.21
2194.98
2327.30
2408.31
2349.19
1278.78
1282.01
1288.00
1296.43
1307.07
1319.73
1334.37
1351.11
1370.41
1393.24
1421.22
1448.30
1585.74
1746.85
1903.62
2054.54
2198.03
2329.08
2408.43
2348.91
1281.66
1284.84
1290.74
1299.04
1309.54
1322.07
1336.59
1353.26
1372.54
1395.44
1423.52
1447.58
1594.46
1753.96
1909.24
2058.79
2201.04
2330.82
2408.54
2348.64
1284.48
1287.61
1293.41
1301.60
1311.97
1324.38
1338.79
1355.39
1374.66
1397.63
1425.81
1445.85
1603.03
1760.96
1914.77
2062.98
2204.00
2332.54
2408.63
2348.36
1287.24
1290.32
1296.03
1304.11
1314.36
1326.65
1340.96
1357.50
1376.76
1399.81
1428.07
1452.58
1611.45
1767.83
1920.21
2067.10
2206.91
2334.22
2408.71
2348.08
1289.94
1292.97
1298.60
1306.57
1316.71
1328.88
1343.11
1359.59
1378.86
1401.99
1430.31
1462.39
1619.73
1774.60
1925.57
2071.16
2209.78
2335.87
2408.79
2347.81
1292.58
1295.57
1301.12
1308.99
1319.02
1331.09
1345.23
1361.67
1380.95
1404.17
1432.51
1472.12
1627.88
1781.26
1930.85
2075.17
2212.61
2337.50
2408.85
2347.52
1295.16
1298.11
1303.59
1311.37
1321.29
1333.27
1347.34
1363.73
1383.03
1406.34
1434.67
1481.71
1635.90
1787.81
1936.04
2079.11
2215.40
2339.10
2408.90
2347.24
1297.70
1300.61
1306.02
1313.71
1323.53
1335.42
1349.42
1365.78
1385.11
1408.51
1436.78
1491.14
1643.79
1794.27
1941.17
2083.00
2218.16
2340.68
2408.94
2346.94
1300.19
1303.06
1308.40
1316.01
1325.75
1337.55
1351.48
1367.82
1387.17
1410.67
1438.81
1500.43
1651.56
1800.64
1946.22
2086.85
2220.88
2342.23
2408.97
2346.64
1302.63
1305.46
1310.74
1318.27
1327.93
1339.65
1353.53
1369.84
1389.24
1412.84
1440.75
1509.57
1659.22
1806.91
1951.20
2090.64
2223.57
2343.77
2408.99
2346.34
1305.03
1307.83
1313.05
1320.51
1330.08
1341.73
1355.56
1371.86
1391.30
1414.99
1442.58
1518.56
1666.76
1813.09
1956.11
2094.38
2226.23
2345.28
2409.00
2346.02
1307.39
1310.15
1315.32
1322.71
1332.20
1343.79
1357.57
1373.87
1393.35
1417.15
1444.25
1527.43
1674.19
1819.19
1960.96
2098.08
2228.86
2346.77
2409.00
2345.70
1309.71
1312.44
1317.56
1324.88
1334.31
1345.83
1359.57
1375.87
1395.41
1419.30
1445.71
1536.16
1681.52
1825.20
1965.75
2101.74
2231.46
2348.24
2408.99
2345.37
1311.99
1314.70
1319.76
1327.02
1336.38
1347.85
1361.56
1377.86
1397.46
1421.44
1446.89
1544.76
1688.74
1831.14
1970.48
2105.35
2234.03
2349.70
2408.97
2345.04
1314.24
1316.92
1321.94
1329.13
1338.44
1349.86
1363.53
1379.84
1399.51
1423.57
1447.69
1553.23
1695.87
1836.99
1975.15
2108.92
2236.58
2351.13
2408.94
2344.69
1316.45
1319.11
1324.08
1331.22
1340.47
1351.84
1365.50
1381.82
1401.56
1425.69
1447.94
1561.59
1702.90
1842.78
1979.76
2112.46
2239.10
2352.55
2408.90
2344.33
1318.63
1321.26
1326.20
1333.29
1342.49
1353.82
1367.45
1383.80
1403.60
1427.79
1447.42
1569.82
1709.83
1848.49
1984.32
2115.95
2241.60
2353.95
2408.85
2343.96
1320.78
1323.39
1328.29
1335.33
1344.48
1355.77
1369.40
1385.77
1405.65
1429.88
1445.90
1577.95
1716.68
1854.12
1988.83
2119.41
2244.07
2355.34
2408.79
2343.58
1322.91
1325.49
1330.35
1337.35
1346.46
1357.72
1371.33
1387.73
1407.70
1431.93
1448.94
1585.96
1723.44
1859.70
1993.29
2122.84
2246.52
2356.71
2408.73
2343.19
1325.00
1327.57
1332.40
1339.35
1348.42
1359.65
1373.26
1389.70
1409.74
1433.96
1457.91
1593.87
1730.11
1865.20
1997.70
2126.23
2248.95
2358.06
2408.65
2342.79
1327.07
1329.62
1334.42
1341.34
1350.36
1361.57
1375.18
1391.66
1411.79
1435.94
1466.95
1601.67
1736.70
1870.64
2002.06
2129.59
2251.36
2359.39
2408.56
2342.38
1329.12
1331.65
1336.42
1343.30
1352.30
1363.48
1377.10
1393.62
1413.83
1437.87
1475.90
1609.38
1743.21
1876.02
2006.37
2132.92
2253.75
2360.71
2408.46
2341.96
1331.14
1333.66
1338.39
1345.25
1354.21
1365.39
1379.01
1395.58
1415.87
1439.72
1484.74
1616.98
1749.64
1881.33
2010.64
2136.21
2256.12
2362.02
2408.35
2341.53
1333.14
1335.65
1340.36
1347.18
1356.12
1367.28
1380.92
1397.54
1417.91
1441.49
1493.46
1624.49
1755.99
1886.59
2014.87
2139.48
2258.47
2363.31
2408.23
2341.08
1335.13
1337.61
1342.30
1349.09
1358.01
1369.17
1382.82
1399.50
1419.94
1443.14
1502.07
1631.90
1762.27
1891.79
2019.05
2142.72
2260.80
2364.58
2408.10
2340.63
1337.09
1339.56
1344.22
1351.00
1359.90
1371.04
1384.72
1401.46
1421.97
1444.64
1510.57
1639.22
1768.48
1896.93
2023.20
2145.93
2263.12
2365.84
2407.96
2340.16
1339.03
1341.49
1346.14
1352.89
1361.77
1372.92
1386.62
1403.42
1424.00
1445.93
1518.95
1646.46
1774.61
1902.02
2027.30
2149.11
2265.41
2367.08
2407.81
2339.68
1340.95
1343.40
1348.03
1354.76
1363.63
1374.78
1388.52
1405.38
1426.01
1446.95
1527.24
1653.61
1780.68
1907.06
2031.36
2152.27
2267.69
2368.31
2407.65
2339.19
1342.86
1345.30
1349.91
1356.63
1365.49
1376.64
1390.41
1407.34
1428.01
1447.59
1535.41
1660.67
1786.68
1912.04
2035.39
2155.40
2269.95
2369.52
2407.48
2338.69
1344.76
1347.19
1351.78
1358.48
1367.33
1378.50
1392.31
1409.31
1429.99
1447.70
1543.49
1667.65
1792.61
1916.97
2039.38
2158.50
2272.19
2370.72
2407.30
2338.17
1346.63
1349.06
1353.64
1360.33
1369.17
1380.35
1394.20
1411.27
1431.95
1447.09
1551.47
1674.55
1798.48
1921.86
2043.33
2161.58
2274.42
2371.91
2407.10
2337.65
1348.50
1350.91
1355.49
1362.16
1371.01
1382.20
1396.09
1413.23
1433.88
1445.59
1559.35
1681.38
1804.29
1926.69
2047.25
2164.64
2276.63
2373.07
2406.90
2337.11
1350.35
1352.76
1357.32
1363.99
1372.84
1384.05
1397.99
1415.19
1435.77
1448.73
1567.14
1688.12
1810.03
1931.48
2051.13
2167.67
2278.83
2374.23
2406.68
2336.56
1352.19
1354.59
1359.15
1365.81
1374.66
1385.90
1399.88
1417.16
1437.62
1457.24
1574.83
1694.79
1815.72
1936.22
2054.98
2170.68
2281.01
2375.36
2406.45
2335.99
1354.02
1356.42
1360.96
1367.62
1376.48
1387.74
1401.78
1419.11
1439.40
1465.84
1582.44
1701.39
1821.34
1940.92
2058.79
2173.67
2283.18
2376.48
2406.21
2335.42
1355.84
1358.23
1362.77
1369.43
1378.30
1389.59
1403.68
1421.07
1441.10
1474.37
1589.96
1707.92
1826.91
1945.57
2062.58
2176.63
2285.33
2377.59
2405.96
2334.83
1357.64
1360.03
1364.57
1371.23
1380.11
1391.43
1405.58
1423.02
1442.70
1482.81
1597.39
1714.38
1832.43
1950.18
2066.33
2179.58
2287.47
2378.68
2405.70
2334.23
1359.44
1361.83
1366.37
1373.03
1381.92
1393.27
1407.48
1424.97
1444.17
1491.15
1604.74
1720.76
1837.88
1954.74
2070.05
2182.50
2289.59
2379.75
2405.42
2333.62
1361.23
1363.62
1368.15
1374.82
1383.73
1395.12
1409.38
1426.90
1445.47
1499.39
1612.01
1727.09
1843.29
1959.27
2073.74
2185.40
2291.70
2380.81
2405.14
2332.99
1363.02
1365.40
1369.93
1376.61
1385.54
1396.96
1411.28
1428.82
1446.53
1507.54
1619.20
1733.34
1848.64
1963.75
2077.40
2188.28
2293.79
2381.85
2404.84
2332.36
1364.79
1367.17
1371.71
1378.39
1387.34
1398.81
1413.18
1430.73
1447.28
1515.59
1626.31
1739.53
1853.94
1968.20
2081.03
2191.14
2295.87
2382.88
2404.52
2331.71
1366.56
1368.94
1373.48
1380.17
1389.15
1400.66
1415.09
1432.61
1447.61
1523.55
1633.34
1745.66
1859.19
1972.60
2084.64
2193.99
2297.93
2383.88
2404.20
2331.05
1368.32
1370.71
1375.25
1381.95
1390.95
1402.51
1416.99
1434.46
1447.34
1531.42
1640.30
1751.73
1864.39
1976.97
2088.21
2196.81
2299.98
2384.87
2403.87
2330.37
1370.08
1372.47
1377.02
1383.73
1392.76
1404.36
1418.90
1436.27
1446.28
1539.20
1647.19
1757.74
1869.55
1981.30
2091.76
2199.61
2302.02
2385.85
2403.52
2329.69
1371.83
1374.22
1378.78
1385.51
1394.56
1406.21
1420.80
1438.04
1445.27
1546.90
1654.00
1763.69
1874.65
1985.59
2095.28
2202.40
2304.04
2386.80
2403.16
2328.99
1373.58
1375.98
1380.54
1387.29
1396.37
1408.07
1422.69
1439.75
1452.33
1554.52
1660.74
1769.57
1879.71
1989.85
2098.78
2205.17
2306.05
2387.74
2402.78
2328.28
1375.33
1377.72
1382.30
1389.06
1398.18
1409.92
1424.58
1441.38
1460.63
1562.05
1667.41
1775.41
1884.72
1994.07
2102.25
2207.92
2308.04
2388.66
2402.40
2327.56
1377.07
1379.47
1384.05
1390.84
1399.99
1411.78
1426.47
1442.90
1468.90
1569.49
1674.02
1781.18
1889.69
1998.26
2105.70
2210.65
2310.02
2389.56
2402.00
2326.83
1378.81
1381.22
1385.81
1392.62
1401.81
1413.64
1428.34
1444.30
1477.10
1576.87
1680.56
1786.91
1894.61
2002.42
2109.12
2213.36
2311.99
2390.44
2401.59
2326.09
1380.55
1382.96
1387.57
1394.40
1403.62
1415.50
1430.19
1445.53
1485.21
1584.16
1687.03
1792.57
1899.49
2006.54
2112.51
2216.06
2313.94
2391.31
2401.16
2325.33
1382.29
1384.70
1389.32
1396.18
1405.44
1417.36
1432.03
1446.54
1493.24
1591.37
1693.44
1798.19
1904.33
2010.62
2115.88
2218.74
2315.88
2392.15
2400.73
2324.56
1384.02
1386.44
1391.08
1397.96
1407.26
1419.22
1433.84
1447.24
1501.18
1598.52
1699.79
1803.75
1909.13
2014.68
2119.23
2221.40
2317.81
2392.98
2400.28
2323.78
1385.76
1388.19
1392.84
1399.74
1409.08
1421.08
1435.62
1447.54
1509.04
1605.59
1706.08
1809.27
1913.88
2018.70
2122.55
2224.05
2319.72
2393.78
2399.81
2322.99
1387.49
1389.93
1394.59
1401.53
1410.90
1422.93
1437.36
1447.27
1516.81
1612.58
1712.30
1814.73
1918.60
2022.69
2125.85
2226.68
2321.61
2394.57
2399.34
2322.19
1389.23
1391.67
1396.35
1403.31
1412.73
1424.78
1439.05
1446.26
1524.50
1619.51
1718.47
1820.14
1923.27
2026.66
2129.13
2229.29
2323.49
2395.34
2398.85
2321.37
1390.96
1393.42
1398.12
1405.10
1414.55
1426.62
1440.67
1445.07
1532.11
1626.37
1724.58
1825.51
1927.91
2030.59
2132.39
2231.89
2325.36
2396.08
2398.35
2320.55
1392.70
1395.16
1399.88
1406.90
1416.38
1428.45
1442.20
1451.48
1539.64
1633.16
1730.63
1830.82
1932.51
2034.49
2135.62
2234.47
2327.21
2396.81
2397.83
2319.71
1394.44
1396.91
1401.65
1408.69
1418.21
1430.27
1443.63
1459.53
1547.10
1639.88
1736.62
1836.10
1937.07
2038.36
2138.84
2237.03
2329.05
2397.51
2397.30
2318.86
1396.18
1398.66
1403.41
1410.49
1420.03
1432.06
1444.91
1467.59
1554.47
1646.54
1742.56
1841.32
1941.59
2042.21
2142.03
2239.58
2330.88
2398.20
2396.76
2318.00
1397.92
1400.41
1405.18
1412.29
1421.85
1433.84
1446.01
1475.58
1561.78
1653.14
1748.45
1846.50
1946.08
2046.02
2145.20
2242.12
2332.69
2398.86
2396.21
2317.13
1399.66
1402.16
1406.96
1414.09
1423.67
1435.58
1446.86
1483.49
1569.01
1659.67
1754.28
1851.64
1950.53
2049.81
2148.35
2244.64
2334.48
2399.50
2395.64
2316.25
1401.41
1403.92
1408.73
1415.89
1425.49
1437.28
1447.39
1491.32
1576.16
1666.14
1760.06
1856.73
1954.95
2053.57
2151.48
2247.14
2336.26
2400.12
2395.06
2315.35
1403.16
1405.68
1410.51
1417.69
1427.29
1438.94
1447.46
1499.07
1583.25
1672.55
1765.79
1861.78
1959.33
2057.30
2154.59
2249.63
2338.02
2400.72
2394.46
2314.45
1404.91
1407.44
1412.29
1419.49
1429.09
1440.53
1446.94
1506.74
1590.27
1678.90
1771.47
1866.78
1963.68
2061.01
2157.68
2252.10
2339.77
2401.30
2393.86
2313.53
1406.66
1409.20
1414.07
1421.29
1430.87
1442.04
1445.65
1514.34
1597.22
1685.19
1777.09
1871.75
1967.99
2064.69
2160.75
2254.56
2341.50
2401.85
2393.24
2312.61
1408.42
1410.97
1415.86
1423.09
1432.63
1443.45
1446.48
1521.86
1604.10
1691.42
1782.67
1876.68
1972.27
2068.35
2163.80
2257.00
2343.22
2402.38
2392.60
2311.67
1410.18
1412.74
1417.64
1424.88
1434.36
1444.73
1454.01
1529.30
1610.92
1697.60
1788.20
1881.56
1976.52
2071.98
2166.83
2259.43
2344.92
2402.89
2391.96
2310.72
1411.94
1414.51
1419.42
1426.66
1436.07
1445.83
1461.90
1536.68
1617.67
1703.72
1793.69
1886.40
1980.73
2075.58
2169.84
2261.84
2346.61
2403.38
2391.30
2309.76
1413.70
1416.28
1421.20
1428.44
1437.73
1446.71
1469.77
1543.97
1624.36
1709.79
1799.12
1891.21
1984.92
2079.16
2172.83
2264.24
2348.27
2403.84
2390.62
2308.79
1415.46
1418.05
1422.98
1430.20
1439.34
1447.29
1477.56
1551.20
1630.99
1715.80
1804.51
1895.98
1989.07
2082.72
2175.81
2266.62
2349.92
2404.28
2389.94
2307.81
1417.23
1419.82
1424.76
1431.95
1440.89
1447.47
1485.28
1558.36
1637.56
1721.76
1809.86
1900.71
1993.19
2086.25
2178.76
2268.99
2351.56
2404.70
2389.24
2306.82
1418.99
1421.59
1426.52
1433.67
1442.36
1447.10
1492.93
1565.45
1644.06
1727.67
1815.16
1905.40
1997.29
2089.76
2181.70
2271.35
2353.18
2405.09
2388.53
2305.82
1420.75
1423.35
1428.28
1435.37
1443.72
1446.01
1500.50
1572.47
1650.51
1733.52
1820.41
1910.05
2001.35
2093.24
2184.62
2273.68
2354.78
2405.47
2387.80
2304.80
1422.52
1425.11
1430.03
1437.03
1444.95
1445.18
1508.00
1579.43
1656.90
1739.33
1825.63
1914.67
2005.38
2096.70
2187.52
2276.01
2356.36
2405.81
2387.07
2303.78
1424.27
1426.87
1431.76
1438.64
1446.00
1451.76
1515.42
1586.32
1663.23
1745.09
1830.80
1919.26
2009.38
2100.14
2190.41
2278.32
2357.92
2406.14
2386.31
2302.75
1426.03
1428.61
1433.47
1440.20
1446.82
1459.50
1522.78
1593.15
1669.50
1750.79
1835.92
1923.80
2013.36
2103.56
2193.27
2280.61
2359.47
2406.44
2385.55
2301.70
1427.77
1430.35
1435.15
1441.69
1447.34
1467.24
1530.06
1599.91
1675.72
1756.45
1841.01
1928.32
2017.31
2106.95
2196.12
2282.89
2361.00
2406.71
2384.77
2300.65
1429.50
1432.06
1436.80
1443.09
1447.44
1474.92
1537.28
1606.61
1681.89
1762.06
1846.06
1932.80
2021.23
2110.32
2198.96
2285.16
2362.51
2406.97
2383.98
2299.59
1431.22
1433.76
1438.41
1444.37
1446.99
1482.53
1544.42
1613.26
1688.00
1767.63
1851.06
1937.24
2025.12
2113.67
2201.77
2287.41
2364.00
2407.19
2383.18
2298.52
1432.92
1435.43
1439.97
1445.49
1445.84
1490.07
1551.51
1619.84
1694.06
1773.14
1856.03
1941.65
2028.98
2117.00
2204.57
2289.65
2365.47
2407.40
2382.37
2297.43
1434.60
1437.06
1441.45
1446.43
1445.48
1497.54
1558.52
1626.36
1700.07
1778.62
1860.96
1946.03
2032.82
2120.31
2207.35
2291.87
2366.92
2407.58
2381.54
2296.34
1436.25
1438.65
1442.85
1447.10
1452.32
1504.94
1565.47
1632.83
1706.02
1784.04
1865.84
1950.38
2036.63
2123.59
2210.12
2294.07
2368.35
2407.74
2380.70
2295.24
1437.85
1440.19
1444.14
1447.44
1459.96
1512.26
1572.36
1639.24
1711.93
1789.43
1870.69
1954.70
2040.41
2126.86
2212.87
2296.27
2369.76
2407.87
2379.85
2294.13
1439.41
1441.65
1445.29
1447.31
1467.58
1519.53
1579.18
1645.59
1717.78
1794.77
1875.51
1958.98
2044.17
2130.10
2215.60
2298.44
2371.15
2407.98
2378.98
2293.00
1440.91
1443.03
1446.26
1446.57
1475.15
1526.72
1585.94
1651.88
1723.59
1800.06
1880.28
1963.23
2047.91
2133.33
2218.32
2300.60
2372.52
2408.06
2378.10
2291.87
1442.33
1444.30
1446.99
1445.18
1482.65
1533.85
1592.64
1658.13
1729.35
1805.32
1885.02
1967.45
2051.62
2136.53
2221.02
2302.75
2373.86
2408.13
2377.21
2290.73
1443.66
1445.42
1447.40
1448.03
1490.09
1540.91
1599.29
1664.32
1735.06
1810.53
1889.73
1971.65
2055.30
2139.71
2223.70
2304.88
2375.19
2408.16
2376.31
2289.59
1444.86
1446.36
1447.38
1455.44
1497.45
1547.91
1605.87
1670.45
1740.72
1815.70
1894.40
1975.81
2058.96
2142.88
2226.37
2307.00
2376.49
2408.18
2375.40
2288.43
1445.89
1447.05
1446.80
1463.00
1504.75
1554.84
1612.40
1676.54
1746.34
1820.83
1899.03
1979.94
2062.60
2146.02
2229.02
2309.10
2377.77
2408.17
2374.47
2287.26
1446.72
1447.42
1445.54
1470.52
1511.98
1561.71
1618.87
1682.57
1751.91
1825.92
1903.63
1984.04
2066.21
2149.15
2231.66
2311.18
2379.03
2408.13
2373.53
2286.08
1447.27
1447.35
1446.38
1477.98
1519.15
1568.52
1625.28
1688.56
1757.44
1830.97
1908.19
1988.12
2069.79
2152.26
2234.28
2313.25
2380.27
2408.08
2372.58
2284.90
1447.45
1446.71
1453.49
1485.37
1526.25
1575.27
1631.64
1694.49
1762.92
1835.99
1912.72
1992.16
2073.36
2155.34
2236.88
2315.31
2381.48
2408.00
2371.62
2283.71
1447.14
1445.41
1460.99
1492.70
1533.29
1581.96
1637.94
1700.37
1768.36
1840.96
1917.22
1996.18
2076.90
2158.41
2239.47
2317.35
2382.67
2407.89
2370.64
2282.50
1446.18
1446.87
1468.46
1499.96
1540.26
1588.60
1644.20
1706.21
1773.76
1845.90
1921.69
2000.17
2080.42
2161.46
2242.04
2319.37
2383.83
2407.77
2369.66
2281.29
1444.92
1454.05
1475.87
1507.16
1547.17
1595.17
1650.39
1712.00
1779.11
1850.80
1926.12
2004.14
2083.91
2164.50
2244.60
2321.37
2384.97
2407.62
2368.66
2280.07
1450.03
1461.50
1483.22
1514.30
1554.02
1601.69
1656.54
1717.74
1784.42
1855.66
1930.52
2008.07
2087.39
2167.51
2247.14
2323.36
2386.09
2407.44
2367.65
2278.85
1457.42
1468.92
1490.51
1521.36
1560.81
1608.16
1662.64
1723.44
1789.69
1860.48
1934.89
2011.98
2090.84
2170.51
2249.67
2325.34
2387.18
2407.25
2366.63
2277.61
1464.84
1476.29
1497.74
1528.37
1567.54
1614.56
1668.68
1729.09
1794.92
1865.27
1939.23
2015.86
2094.27
2173.48
2252.18
2327.29
2388.25
2407.03
2365.60
2276.37
1472.22
1483.60
1504.90
1535.32
1574.22
1620.92
1674.68
1734.69
1800.11
1870.03
1943.54
2019.72
2097.67
2176.44
2254.68
2329.23
2389.28
2406.79
2364.56
2275.12
1479.54
1490.85
1511.99
1542.20
1580.83
1627.22
1680.63
1740.26
1805.26
1874.75
1947.81
2023.55
2101.06
2179.39
2257.16
2331.15
2390.30
2406.52
2363.50
2273.86
1486.80
1498.03
1519.03
1549.02
1587.39
1633.47
1686.53
1745.77
1810.37
1879.43
1952.06
2027.36
2104.43
2182.31
2259.63
2333.06
2391.29
2406.24
2362.44
2272.59
1494.00
1505.15
1526.00
1555.79
1593.89
1639.67
1692.38
1751.25
1815.44
1884.08
1956.28
2031.14
2107.77
2185.22
2262.08
2334.95
2392.25
2405.93
2361.36
2271.32
1501.13
1512.20
1532.91
1562.49
1600.34
1645.81
1698.18
1756.68
1820.47
1888.70
1960.47
2034.89
2111.09
2188.11
2264.51
2336.82
2393.18
2405.60
2360.28
2270.03
1508.20
1519.20
1539.76
1569.14
1606.74
1651.91
1703.94
1762.07
1825.47
1893.28
1964.63
2038.62
2114.40
2190.98
2266.93
2338.67
2394.09
2405.25
2359.18
2268.75
1515.21
1526.13
1546.55
1575.73
1613.08
1657.95
1709.65
1767.42
1830.43
1897.83
1968.76
2042.33
2117.68
2193.84
2269.33
2340.50
2394.97
2404.87
2358.07
2267.45
1522.16
1533.01
1553.29
1582.27
1619.37
1663.95
1715.32
1772.72
1835.35
1902.35
1972.86
2046.01
2120.94
2196.68
2271.72
2342.32
2395.82
2404.48
2356.95
2266.15
1529.05
1539.82
1559.96
1588.75
1625.61
1669.90
1720.95
1777.99
1840.23
1906.83
1976.93
2049.67
2124.18
2199.50
2274.10
2344.12
2396.65
2404.06
2355.82
2264.83
1535.88
1546.58
1566.58
1595.18
1631.79
1675.80
1726.53
1783.22
1845.08
1911.29
1980.98
2053.31
2127.41
2202.30
2276.45
2345.90
2397.44
2403.62
2354.68
2263.52
1542.65
1553.27
1573.15
1601.56
1637.93
1681.66
1732.06
1788.40
1849.90
1915.71
1985.00
2056.92
2130.61
2205.09
2278.80
2347.66
2398.21
2403.17
2353.53
2262.19
1549.36
1559.92
1579.66
1607.88
1644.02
1687.47
1737.56
1793.55
1854.67
1920.10
1988.99
2060.51
2133.79
2207.86
2281.12
2349.40
2398.95
2402.69
2352.38
2260.86
1556.02
1566.50
1586.11
1614.15
1650.06
1693.23
1743.01
1798.66
1859.42
1924.46
1992.96
2064.07
2136.96
2210.62
2283.44
2351.12
2399.66
2402.19
2351.21
2259.52
1562.62
1573.04
1592.52
1620.37
1656.05
1698.95
1748.42
1803.74
1864.13
1928.79
1996.90
2067.62
2140.10
2213.36
2285.73
2352.82
2400.35
2401.67
2350.03
2258.18